 Gaussian 16, Revision A.03,
 Gaussian 16:  EM64L-G16RevA.03 25-Dec-2016

 ----------------------------------------------------------------
 #n CAM-B3LYP/6-31G(d,p) Opt=ReadFC Freq Geom=AllCheck Guess=Read
 ----------------------------------------------------------------

 Structure from the checkpoint file:  "PY101_CAM-B3LYP.chk"
 -----
 PY101
 -----
 Charge =  0 Multiplicity = 1

 SCF Done:  E(RCAM-B3LYP) =  -1107.37050348     A.U. after    1 cycles
 Optimization completed.
    -- Stationary point found.
 Normal termination of Gaussian 16 at Mon Aug 16 17:51:56 2021.

 ----------------------------------------------------------------------
 #N Geom=AllCheck Guess=TCheck SCRF=Check GenChk RCAM-B3LYP/6-31G(d,p)
 Freq
 ----------------------------------------------------------------------

 Structure from the checkpoint file:  "PY101_CAM-B3LYP.chk"
 -----
 PY101
 -----
 Charge =  0 Multiplicity = 1

                         Standard orientation:
 ---------------------------------------------------------------------
 Center     Atomic      Atomic             Coordinates (Angstroms)
 Number     Number       Type             X           Y           Z
 ---------------------------------------------------------------------
      1          8           0        1.899034   -2.600232    0.000244
      2          8           0       -1.898621    2.599763    0.000284
      3          7           0        0.558244   -0.405410   -0.000026
      4          7           0       -0.558284    0.405201   -0.000015
      5          6           0        6.679658    1.654236   -0.000253
      6          6           0        6.649137    0.284699    0.000079
      7          6           0        5.467162    2.367452   -0.000566
      8          6           0        4.261976    1.709868   -0.000506
      9          6           0        5.401469   -1.840297    0.000408
     10          6           0        4.232971   -2.533923    0.000407
     11          6           0        5.423035   -0.417419    0.000131
     12          6           0        4.194091    0.295023   -0.000118
     13          6           0        2.994180   -1.843809    0.000192
     14          6           0        2.954530   -0.444195   -0.000031
     15          6           0        1.680030    0.234065   -0.000016
     16          6           0       -6.649232   -0.284304    0.000051
     17          6           0       -6.679977   -1.653835   -0.000261
     18          6           0       -5.467596   -2.367250   -0.000535
     19          6           0       -4.262302   -1.709865   -0.000468
     20          6           0       -4.194183   -0.295028   -0.000114
     21          6           0       -5.423014    0.417616    0.000114
     22          6           0       -5.401226    1.840493    0.000388
     23          6           0       -4.232616    2.533937    0.000415
     24          6           0       -2.993955    1.843603    0.000212
     25          6           0       -2.954517    0.444015   -0.000023
     26          6           0       -1.680050   -0.234300   -0.000066
     27          1           0        5.481881    3.452585   -0.000886
     28          1           0        3.355163    2.301708   -0.000798
     29          1           0        7.624955    2.185841   -0.000279
     30          1           0        7.572043   -0.287957    0.000302
     31          1           0        1.107779   -1.997289    0.000223
     32          1           0        4.203076   -3.617123    0.000598
     33          1           0        6.348888   -2.371257    0.000613
     34          1           0       -7.572043    0.288503    0.000250
     35          1           0       -7.625361   -2.185285   -0.000300
     36          1           0       -5.482492   -3.452381   -0.000822
     37          1           0       -3.355594   -2.301863   -0.000717
     38          1           0       -1.107606    1.996555    0.000233
     39          1           0       -6.348560    2.371604    0.000569
     40          1           0       -4.202535    3.617132    0.000608
     41          1           0        1.648151    1.322398   -0.000055
     42          1           0       -1.648198   -1.322633   -0.000132
 ---------------------------------------------------------------------

 SCF Done:  E(RCAM-B3LYP) =  -1107.37050348     A.U. after    1 cycles

 The electronic state is 1-A.
 Alpha  occ. eigenvalues --  -19.23915 -19.23911 -14.44782 -14.44764 -10.33761
 Alpha  occ. eigenvalues --  -10.33760 -10.32046 -10.32045 -10.28363 -10.28363
 Alpha  occ. eigenvalues --  -10.27759 -10.27759 -10.27348 -10.27347 -10.27162
 Alpha  occ. eigenvalues --  -10.27162 -10.26768 -10.26768 -10.26731 -10.26731
 Alpha  occ. eigenvalues --  -10.26559 -10.26559 -10.26529 -10.26529 -10.26268
 Alpha  occ. eigenvalues --  -10.26268  -1.14386  -1.14210  -1.09411  -0.97078
 Alpha  occ. eigenvalues --   -0.96399  -0.94840  -0.90666  -0.90448  -0.87387
 Alpha  occ. eigenvalues --   -0.85760  -0.82385  -0.82302  -0.81363  -0.80081
 Alpha  occ. eigenvalues --   -0.75126  -0.71995  -0.70570  -0.70020  -0.69020
 Alpha  occ. eigenvalues --   -0.68666  -0.66109  -0.65344  -0.63549  -0.60462
 Alpha  occ. eigenvalues --   -0.59923  -0.59710  -0.57998  -0.57580  -0.56328
 Alpha  occ. eigenvalues --   -0.54201  -0.52526  -0.52183  -0.51660  -0.51566
 Alpha  occ. eigenvalues --   -0.51192  -0.50397  -0.49588  -0.49506  -0.48889
 Alpha  occ. eigenvalues --   -0.48277  -0.48059  -0.47215  -0.46246  -0.45545
 Alpha  occ. eigenvalues --   -0.45422  -0.44599  -0.44559  -0.44060  -0.41954
 Alpha  occ. eigenvalues --   -0.40898  -0.40829  -0.39903  -0.39150  -0.38029
 Alpha  occ. eigenvalues --   -0.37327  -0.37310  -0.35001  -0.32146  -0.31873
 Alpha  occ. eigenvalues --   -0.28686  -0.28531  -0.26961  -0.24385
 Alpha virt. eigenvalues --   -0.03732  -0.00096   0.02771   0.04186   0.04188
 Alpha virt. eigenvalues --    0.05247   0.10884   0.11716   0.13079   0.14370
 Alpha virt. eigenvalues --    0.14807   0.15079   0.17142   0.17152   0.17169

 Mulliken charges:
               1
     1  O   -0.564879
     2  O   -0.564882
     3  N   -0.400932
     4  N   -0.400956
     5  C   -0.097114
     6  C   -0.131858
     7  C   -0.098462
     8  C   -0.135544
     9  C   -0.119741
    10  C   -0.103113
    11  C    0.080637
    12  C    0.053399
    13  C    0.297886
    14  C   -0.018130
    15  C    0.199426
    16  C   -0.131859
    17  C   -0.097115
    18  C   -0.098457
    19  C   -0.135547
    20  C    0.053415
    21  C    0.080633
    22  C   -0.119744
    23  C   -0.103111
    24  C    0.297882
    25  C   -0.018177
    26  C    0.199448
    27  H    0.093841
    28  H    0.088951
    29  H    0.091828
    30  H    0.091802
    31  H    0.351547
    32  H    0.109028
    33  H    0.099738
    34  H    0.091802
    35  H    0.091827
    36  H    0.093839
    37  H    0.088943
    38  H    0.351579
    39  H    0.099737
    40  H    0.109027
    41  H    0.111702
    42  H    0.111705
 Sum of Mulliken charges =  -0.00000

 Dipole moment (field-independent basis, Debye):
    X=              0.0001    Y=             -0.0004    Z=              0.0000  Tot=              0.0004
 Quadrupole moment (field-independent basis, Debye-Ang):
   XX=           -115.5716   YY=           -141.2490   ZZ=           -154.9527
   XY=              2.6597   XZ=              0.0003   YZ=             -0.0003

  Exact polarizability: 527.215  16.438 297.972   0.002  -0.000  78.475
 Approx polarizability: 504.991  25.357 413.091   0.002  -0.000 113.514

                      1                      2                      3
                      A                      A                      A
 Frequencies --     12.6473                27.3348                37.0138
 Red. masses --      6.0045                 5.1441                 6.0347
 Frc consts  --      0.0006                 0.0023                 0.0049
 IR Inten    --      0.3608                 0.2660                 0.1628

                      4                      5                      6
                      A                      A                      A
 Frequencies --     63.1057               113.6405               119.9404
 Red. masses --      4.5903                 4.2994                 6.0391
 Frc consts  --      0.0108                 0.0327                 0.0512
 IR Inten    --      0.0000                 0.0000                 0.0665

                      7                      8                      9
                      A                      A                      A
 Frequencies --    121.9374               128.5912               162.7315
 Red. masses --      6.1525                 4.9663                 7.6142
 Frc consts  --      0.0539                 0.0484                 0.1188
 IR Inten    --      0.0000                 0.4663                 0.0000

                     10                     11                     12
                      A                      A                      A
 Frequencies --    171.3097               208.4417               215.5118
 Red. masses --      3.4863                 3.5071                 4.7688
 Frc consts  --      0.0603                 0.0898                 0.1305
 IR Inten    --      0.0000                 0.0000                 0.1871

                     13                     14                     15
                      A                      A                      A
 Frequencies --    265.1809               280.5205               303.0943
 Red. masses --      3.3721                 5.8329                 6.5746
 Frc consts  --      0.1397                 0.2704                 0.3559
 IR Inten    --      7.6854                 5.7683                 0.0000

                     16                     17                     18
                      A                      A                      A
 Frequencies --    363.9919               364.3801               385.7979
 Red. masses --      4.0011                 5.0807                 7.0347
 Frc consts  --      0.3123                 0.3975                 0.6169
 IR Inten    --      2.3866                 0.0005                 3.0378

                     19                     20                     21
                      A                      A                      A
 Frequencies --    386.0679               434.5584               442.8609
 Red. masses --      4.4738                 3.1257                 6.7916
 Frc consts  --      0.3929                 0.3478                 0.7848
 IR Inten    --      0.0026                 6.9816                24.2899

                     22                     23                     24
                      A                      A                      A
 Frequencies --    444.3139               447.6337               448.9651
 Red. masses --      8.1196                 3.3631                 7.7090
 Frc consts  --      0.9444                 0.3970                 0.9155
 IR Inten    --      0.0001                 0.0001                 4.8226

                     25                     26                     27
                      A                      A                      A
 Frequencies --    471.2802               526.4438               543.4831
 Red. masses --      6.0456                 5.3033                 3.1882
 Frc consts  --      0.7911                 0.8660                 0.5548
 IR Inten    --      0.0000                 2.4068                 8.2014

                     28                     29                     30
                      A                      A                      A
 Frequencies --    543.6678               551.7424               559.3632
 Red. masses --      6.4958                 6.7464                 3.4236
 Frc consts  --      1.1312                 1.2100                 0.6311
 IR Inten    --      0.0066                 9.1057                 0.0000

                     31                     32                     33
                      A                      A                      A
 Frequencies --    559.9569               565.4368               586.6806
 Red. masses --      3.4746                 3.8826                 5.2559
 Frc consts  --      0.6419                 0.7314                 1.0659
 IR Inten    --      0.3800                 0.0000                 0.0000

                     34                     35                     36
                      A                      A                      A
 Frequencies --    660.2275               683.4677               696.6234
 Red. masses --      6.7425                 6.3938                 3.1178
 Frc consts  --      1.7316                 1.7597                 0.8914
 IR Inten    --      0.0000                10.7055                 1.7026

                     37                     38                     39
                      A                      A                      A
 Frequencies --    701.0068               746.9078               747.1159
 Red. masses --      3.2728                 6.4946                 6.5167
 Frc consts  --      0.9476                 2.1347                 2.1431
 IR Inten    --      0.0000                20.9439                 0.0027

                     40                     41                     42
                      A                      A                      A
 Frequencies --    773.4561               773.4766               791.7720
 Red. masses --      1.5123                 1.4965                 2.8360
 Frc consts  --      0.5330                 0.5275                 1.0475
 IR Inten    --     33.1589                 0.0323                27.6759

                     43                     44                     45
                      A                      A                      A
 Frequencies --    792.7344               797.2238               819.3616
 Red. masses --      2.9409                 5.6799                 5.7059
 Frc consts  --      1.0889                 2.1269                 2.2570
 IR Inten    --      0.0001                 0.0000                 8.7734

                     46                     47                     48
                      A                      A                      A
 Frequencies --    837.9098               842.7640               855.4331
 Red. masses --      1.1490                 1.1662                 1.3925
 Frc consts  --      0.4753                 0.4880                 0.6004
 IR Inten    --      0.1019               240.1130                13.4449

                     49                     50                     51
                      A                      A                      A
 Frequencies --    855.7189               893.4093               893.5096
 Red. masses --      1.3979                 1.6535                 1.6524
 Frc consts  --      0.6031                 0.7776                 0.7773
 IR Inten    --      0.0269                 0.0016                 7.0559

                     52                     53                     54
                      A                      A                      A
 Frequencies --    895.8136               909.6436               975.5019
 Red. masses --      3.8203                 3.9229                 1.3481
 Frc consts  --      1.8063                 1.9125                 0.7559
 IR Inten    --      2.5265                 0.0000                 0.1319

                     55                     56                     57
                      A                      A                      A
 Frequencies --    976.1879               988.1745               997.5040
 Red. masses --      1.3370                 5.0277                 1.4720
 Frc consts  --      0.7507                 2.8926                 0.8630
 IR Inten    --      0.0000                 0.0000                13.0470

                     58                     59                     60
                      A                      A                      A
 Frequencies --   1002.5926              1003.6965              1004.5340
 Red. masses --      6.5272                 1.3181                 1.3154
 Frc consts  --      3.8657                 0.7824                 0.7820
 IR Inten    --     11.3823                 0.0000                 3.4859

                     61                     62                     63
                      A                      A                      A
 Frequencies --   1012.8671              1016.7996              1020.1681
 Red. masses --      1.4074                 1.3112                 1.4147
 Frc consts  --      0.8507                 0.7987                 0.8675
 IR Inten    --      0.0000                 0.2539                 0.0000

                     64                     65                     66
                      A                      A                      A
 Frequencies --   1078.2370              1078.9996              1126.0282
 Red. masses --      2.2141                 2.1698                 2.1118
 Frc consts  --      1.5166                 1.4884                 1.5776
 IR Inten    --      0.0008                33.9396                35.6621

                     67                     68                     69
                      A                      A                      A
 Frequencies --   1131.3998              1164.9200              1180.3676
 Red. masses --      1.9506                 5.5653                 1.2204
 Frc consts  --      1.4711                 4.4497                 1.0018
 IR Inten    --      0.0000                 0.0000                46.2096

                     70                     71                     72
                      A                      A                      A
 Frequencies --   1181.7384              1202.8756              1203.9853
 Red. masses --      1.2373                 1.2574                 1.2193
 Frc consts  --      1.0180                 1.0719                 1.0413
 IR Inten    --      0.0001                 7.8205                 0.0000

                     73                     74                     75
                      A                      A                      A
 Frequencies --   1219.7273              1231.8964              1251.7839
 Red. masses --      1.8182                 2.0625                 1.8817
 Frc consts  --      1.5937                 1.8442                 1.7372
 IR Inten    --    227.8061                 0.0000                 7.0273

                     76                     77                     78
                      A                      A                      A
 Frequencies --   1253.7241              1289.4563              1293.7890
 Red. masses --      1.8427                 1.7329                 1.7610
 Frc consts  --      1.7065                 1.6976                 1.7368
 IR Inten    --      0.0000                 5.3636                 0.0000

                     79                     80                     81
                      A                      A                      A
 Frequencies --   1343.2801              1347.5227              1372.9021
 Red. masses --      2.4837                 2.6365                 1.7471
 Frc consts  --      2.6405                 2.8206                 1.9402
 IR Inten    --     25.9915                 0.0000               317.8420

                     82                     83                     84
                      A                      A                      A
 Frequencies --   1382.6680              1407.0723              1416.3140
 Red. masses --      2.4290                 3.3534                 3.7375
 Frc consts  --      2.7360                 3.9118                 4.4172
 IR Inten    --      0.0000                 3.2118                 0.0000

                     85                     86                     87
                      A                      A                      A
 Frequencies --   1431.0617              1441.8253              1442.4718
 Red. masses --      3.9095                 3.0848                 2.6713
 Frc consts  --      4.7173                 3.7784                 3.2749
 IR Inten    --     17.1383                 0.0365                40.3068

                     88                     89                     90
                      A                      A                      A
 Frequencies --   1465.4836              1488.9090              1491.4574
 Red. masses --      2.4102                 2.7009                 2.5741
 Frc consts  --      3.0497                 3.5278                 3.3737
 IR Inten    --      0.0000                72.4405                 0.0003

                     91                     92                     93
                      A                      A                      A
 Frequencies --   1517.2321              1523.1790              1542.0364
 Red. masses --      2.2920                 2.5022                 2.2204
 Frc consts  --      3.1086                 3.4204                 3.1108
 IR Inten    --     94.1277                 0.0004               130.2528

                     94                     95                     96
                      A                      A                      A
 Frequencies --   1546.5973              1601.7761              1607.5627
 Red. masses --      2.2508                 3.6662                 3.9958
 Frc consts  --      3.1721                 5.5420                 6.0840
 IR Inten    --      0.0020                22.9783                 0.0000

                     97                     98                     99
                      A                      A                      A
 Frequencies --   1652.7714              1664.9820              1689.2241
 Red. masses --      3.8712                 3.5873                 6.7649
 Frc consts  --      6.2304                 5.8592                11.3734
 IR Inten    --      0.0013               681.0799                 1.0862

                    100                    101                    102
                      A                      A                      A
 Frequencies --   1690.6552              1702.1967              1712.5728
 Red. masses --      6.0177                 5.2515                 6.2727
 Frc consts  --     10.1342                 8.9650                10.8393
 IR Inten    --      0.0008                 0.0006                97.1888

                    103                    104                    105
                      A                      A                      A
 Frequencies --   1721.1699              1730.0755              3175.4843
 Red. masses --      6.0694                 6.1719                 1.0886
 Frc consts  --     10.5935                10.8842                 6.4673
 IR Inten    --      0.0004               640.6786                66.4490

                    106                    107                    108
                      A                      A                      A
 Frequencies --   3178.4092              3203.0577              3203.1025
 Red. masses --      1.0895                 1.0875                 1.0881
 Frc consts  --      6.4851                 6.5738                 6.5774
 IR Inten    --      0.0004                49.2445                 0.0000

                    109                    110                    111
                      A                      A                      A
 Frequencies --   3204.2689              3209.2442              3210.4587
 Red. masses --      1.0732                 1.0894                 1.0865
 Frc consts  --      6.4923                 6.6104                 6.5979
 IR Inten    --    756.1279                 0.0001                87.2580

                    112                    113                    114
                      A                      A                      A
 Frequencies --   3213.7806              3213.7887              3229.2322
 Red. masses --      1.0898                 1.0899                 1.0707
 Frc consts  --      6.6320                 6.6326                 6.5784
 IR Inten    --      0.0000                10.8081                 0.0001

                    115                    116                    117
                      A                      A                      A
 Frequencies --   3231.9588              3232.1532              3243.8990
 Red. masses --      1.0956                 1.0948                 1.0939
 Frc consts  --      6.7427                 6.7386                 6.7818
 IR Inten    --     56.0130                 0.0003                36.4399

                    118                    119                    120
                      A                      A                      A
 Frequencies --   3244.0606              3244.7223              3244.8337
 Red. masses --      1.0936                 1.0954                 1.0951
 Frc consts  --      6.7812                 6.7948                 6.7937
 IR Inten    --      0.0090                15.3457                 0.0038

 - Thermochemistry -
 -------------------
 Temperature   298.150 Kelvin.  Pressure   1.00000 Atm.
 Atom     1 has atomic number  8 and mass  15.99491

 Molecular mass:   340.12118 amu.
 Principal axes and moments of inertia in atomic units:
                           1         2         3
     Eigenvalues --  3271.48536********************
           X            0.99999   0.00378   0.00000
           Y           -0.00378   0.99999  -0.00000
           Z           -0.00000   0.00000   1.00000
 This molecule is an asymmetric top.
 Rotational symmetry number  1.
 Warning -- assumption of classical behavior for rotation
           may cause significant error
 Rotational temperatures (Kelvin)      0.02648     0.00367     0.00323
 Rotational constants (GHZ):           0.55166     0.07656     0.06723
 Zero-point vibrational energy     874037.2 (Joules/Mol)
                                  208.89991 (Kcal/Mol)
 Warning -- explicit consideration of  33 degrees of freedom as
           vibrations may cause significant error
 Vibrational temperatures:     18.20    39.33    53.25    90.79   163.50
          (Kelvin)            172.57   175.44   185.01   234.13   246.48
                              299.90   310.07   381.54   403.61   436.09
                              523.70   524.26   555.08   555.47   625.23
                              637.18   639.27   644.04   645.96   678.07
                              757.44   781.95   782.22   793.83   804.80
                              805.65   813.54   844.10   949.92   983.36
                             1002.29  1008.59  1074.63  1074.93  1112.83
                             1112.86  1139.18  1140.57  1147.03  1178.88
                             1205.57  1212.55  1230.78  1231.19  1285.42
                             1285.56  1288.88  1308.77  1403.53  1404.52
                             1421.76  1435.19  1442.51  1444.10  1445.30
                             1457.29  1462.95  1467.79  1551.34  1552.44
                             1620.10  1627.83  1676.06  1698.29  1700.26
                             1730.67  1732.27  1754.92  1772.42  1801.04
                             1803.83  1855.24  1861.47  1932.68  1938.78
                             1975.30  1989.35  2024.46  2037.76  2058.98
                             2074.46  2075.40  2108.50  2142.21  2145.87
                             2182.96  2191.51  2218.65  2225.21  2304.60
                             2312.92  2377.97  2395.54  2430.42  2432.48
                             2449.08  2464.01  2476.38  2489.19  4568.81
                             4573.02  4608.49  4608.55  4610.23  4617.39
                             4619.13  4623.91  4623.93  4646.14  4650.07
                             4650.35  4667.25  4667.48  4668.43  4668.59

 Zero-point correction=                           0.332903 (Hartree/Particle)
 Thermal correction to Energy=                    0.352447
 Thermal correction to Enthalpy=                  0.353391
 Thermal correction to Gibbs Free Energy=         0.282998
 Sum of electronic and zero-point Energies=          -1107.037600
 Sum of electronic and thermal Energies=             -1107.018057
 Sum of electronic and thermal Enthalpies=           -1107.017112
 Sum of electronic and thermal Free Energies=        -1107.087506

                     E (Thermal)             CV                S
                      KCal/Mol        Cal/Mol-Kelvin    Cal/Mol-Kelvin
 Total                  221.164             79.536            148.155
 Electronic               0.000              0.000              0.000
 Translational            0.889              2.981             43.367
 Rotational               0.889              2.981             35.980
 Vibrational            219.386             73.574             68.808
 Vibration     1          0.593              1.987              7.544
 Vibration     2          0.593              1.984              6.014
 Vibration     3          0.594              1.982              5.413
 Vibration     4          0.597              1.972              4.358
 Vibration     5          0.607              1.938              3.206
 Vibration     6          0.609              1.933              3.101
 Vibration     7          0.609              1.931              3.069
 Vibration     8          0.611              1.925              2.967
 Vibration     9          0.623              1.888              2.518
 Vibration    10          0.626              1.878              2.421
 Vibration    11          0.642              1.828              2.057
 Vibration    12          0.645              1.817              1.996
 Vibration    13          0.671              1.737              1.627
 Vibration    14          0.680              1.710              1.530
 Vibration    15          0.695              1.668              1.400
 Vibration    16          0.738              1.546              1.105
 Vibration    17          0.738              1.546              1.103
 Vibration    18          0.754              1.501              1.016
 Vibration    19          0.755              1.500              1.015
 Vibration    20          0.795              1.395              0.844
 Vibration    21          0.802              1.377              0.818
 Vibration    22          0.804              1.373              0.813
 Vibration    23          0.807              1.366              0.803
 Vibration    24          0.808              1.363              0.799
 Vibration    25          0.828              1.314              0.734
 Vibration    26          0.881              1.191              0.595
 Vibration    27          0.899              1.154              0.558
 Vibration    28          0.899              1.154              0.557
 Vibration    29          0.907              1.136              0.541
 Vibration    30          0.915              1.119              0.525
 Vibration    31          0.916              1.118              0.524
 Vibration    32          0.921              1.106              0.513
 Vibration    33          0.944              1.060              0.473

 Optimization completed.
    -- Stationary point found.
 Normal termination of Gaussian 16 at Mon Aug 16 20:14:27 2021.
