 Gaussian 16, Revision A.03,
 Gaussian 16:  EM64L-G16RevA.03 25-Dec-2016

 ----------------------------------------------------------------
 #n CAM-B3LYP/6-31G(d,p) Opt=ReadFC Freq Geom=AllCheck Guess=Read
 ----------------------------------------------------------------

 Structure from the checkpoint file:  "PY101_keto_CB.chk"
 ----------
 PY101_keto
 ----------
 Charge =  0 Multiplicity = 1

 SCF Done:  E(RCAM-B3LYP) =  -1107.36139599     A.U. after    1 cycles
 Optimization completed.
    -- Stationary point found.
 Normal termination of Gaussian 16 at Thu Aug 19 18:57:22 2021.

 ----------------------------------------------------------------------
 #N Geom=AllCheck Guess=TCheck SCRF=Check GenChk RCAM-B3LYP/6-31G(d,p)
 Freq
 ----------------------------------------------------------------------

 Structure from the checkpoint file:  "PY101_keto_CB.chk"
 ----------
 PY101_keto
 ----------
 Charge =  0 Multiplicity = 1

                         Standard orientation:
 ---------------------------------------------------------------------
 Center     Atomic      Atomic             Coordinates (Angstroms)
 Number     Number       Type             X           Y           Z
 ---------------------------------------------------------------------
      1          8           0        1.963017   -2.647557    0.000001
      2          8           0       -1.808344    2.468101    0.000001
      3          7           0        0.571961   -0.460396   -0.000001
      4          7           0       -0.572856    0.276834   -0.000001
      5          6           0        6.650586    1.712891   -0.000001
      6          6           0        6.648792    0.343413    0.000000
      7          6           0        5.423218    2.400557   -0.000002
      8          6           0        4.232425    1.717869   -0.000002
      9          6           0        5.447393   -1.807073    0.000002
     10          6           0        4.292853   -2.524245    0.000002
     11          6           0        5.437648   -0.384961    0.000000
     12          6           0        4.193510    0.301369   -0.000000
     13          6           0        3.041189   -1.860472    0.000001
     14          6           0        2.969985   -0.464077    0.000000
     15          6           0        1.682683    0.195643   -0.000000
     16          6           0       -6.682480   -0.156633    0.000001
     17          6           0       -6.792219   -1.530349   -0.000001
     18          6           0       -5.627436   -2.303321   -0.000002
     19          6           0       -4.383733   -1.703928   -0.000002
     20          6           0       -4.244518   -0.304444   -0.000001
     21          6           0       -5.426921    0.470240    0.000001
     22          6           0       -5.331769    1.910090    0.000002
     23          6           0       -4.152818    2.559890    0.000002
     24          6           0       -2.893094    1.836585    0.000001
     25          6           0       -2.955614    0.382378   -0.000000
     26          6           0       -1.760963   -0.318084   -0.000001
     27          1           0        5.414868    3.485690   -0.000003
     28          1           0        3.315347    2.293765   -0.000002
     29          1           0        7.584406    2.264349   -0.000001
     30          1           0        7.583374   -0.209881    0.000001
     31          1           0        1.158500   -2.076719    0.000001
     32          1           0        4.284726   -3.607822    0.000003
     33          1           0        6.405561   -2.318098    0.000002
     34          1           0       -7.573487    0.464754    0.000002
     35          1           0       -7.766806   -2.006009   -0.000001
     36          1           0       -5.696564   -3.386402   -0.000003
     37          1           0       -3.507737   -2.342614   -0.000003
     38          1           0       -6.261735    2.473014    0.000003
     39          1           0       -4.085927    3.641775    0.000003
     40          1           0        1.650197    1.284764   -0.000001
     41          1           0       -1.723715   -1.402216   -0.000001
     42          1           0       -0.624443    1.322199   -0.000000
 ---------------------------------------------------------------------

 SCF Done:  E(RCAM-B3LYP) =  -1107.36139599     A.U. after    1 cycles

 The electronic state is 1-A.
 Alpha  occ. eigenvalues --  -19.24526 -19.18786 -14.48520 -14.46895 -10.34044
 Alpha  occ. eigenvalues --  -10.33371 -10.33232 -10.32931 -10.28673 -10.28012
 Alpha  occ. eigenvalues --  -10.27933 -10.27916 -10.27590 -10.27431 -10.27001
 Alpha  occ. eigenvalues --  -10.26952 -10.26853 -10.26800 -10.26798 -10.26543
 Alpha  occ. eigenvalues --  -10.26498 -10.26479 -10.26445 -10.26322 -10.25959
 Alpha  occ. eigenvalues --  -10.25591  -1.14930  -1.12812  -1.09180  -0.97984
 Alpha  occ. eigenvalues --   -0.96378  -0.95431  -0.90903  -0.89501  -0.87762
 Alpha  occ. eigenvalues --   -0.85900  -0.82655  -0.81869  -0.81280  -0.79918
 Alpha  occ. eigenvalues --   -0.75369  -0.72695  -0.71755  -0.70146  -0.69311
 Alpha  occ. eigenvalues --   -0.68239  -0.67402  -0.65894  -0.64674  -0.60706
 Alpha  occ. eigenvalues --   -0.60400  -0.58950  -0.58555  -0.57051  -0.55152
 Alpha  occ. eigenvalues --   -0.54956  -0.52939  -0.52712  -0.52290  -0.51482
 Alpha  occ. eigenvalues --   -0.51293  -0.49878  -0.49611  -0.49562  -0.48996
 Alpha  occ. eigenvalues --   -0.48888  -0.48366  -0.47342  -0.47069  -0.45994
 Alpha  occ. eigenvalues --   -0.44941  -0.44898  -0.44502  -0.43562  -0.41362
 Alpha  occ. eigenvalues --   -0.41013  -0.40777  -0.39974  -0.39952  -0.37620
 Alpha  occ. eigenvalues --   -0.36828  -0.36082  -0.35205  -0.32437  -0.30428
 Alpha  occ. eigenvalues --   -0.28911  -0.28218  -0.26867  -0.23872
 Alpha virt. eigenvalues --   -0.03943  -0.00418   0.02583   0.03877   0.04162
 Alpha virt. eigenvalues --    0.05683   0.10654   0.11446   0.12380   0.14152
 Alpha virt. eigenvalues --    0.14560   0.15103   0.16817   0.17017   0.17833

 Mulliken charges:
               1
     1  O   -0.564184
     2  O   -0.607415
     3  N   -0.372128
     4  N   -0.383348
     5  C   -0.096715
     6  C   -0.131534
     7  C   -0.098515
     8  C   -0.137587
     9  C   -0.121223
    10  C   -0.101527
    11  C    0.082500
    12  C    0.049100
    13  C    0.291221
    14  C   -0.010370
    15  C    0.180317
    16  C   -0.137296
    17  C   -0.096823
    18  C   -0.095376
    19  C   -0.141740
    20  C    0.088811
    21  C    0.058179
    22  C   -0.097356
    23  C   -0.129491
    24  C    0.400043
    25  C   -0.075315
    26  C    0.167630
    27  H    0.095613
    28  H    0.089628
    29  H    0.093142
    30  H    0.092834
    31  H    0.352103
    32  H    0.110163
    33  H    0.100535
    34  H    0.090649
    35  H    0.090070
    36  H    0.091621
    37  H    0.080482
    38  H    0.097751
    39  H    0.101945
    40  H    0.117772
    41  H    0.136373
    42  H    0.339462
 Sum of Mulliken charges =  -0.00000

 Dipole moment (field-independent basis, Debye):
    X=              0.9153    Y=             -0.7047    Z=              0.0000  Tot=              1.1551
 Quadrupole moment (field-independent basis, Debye-Ang):
   XX=           -117.5406   YY=           -143.6356   ZZ=           -154.8712
   XY=              4.0869   XZ=             -0.0000   YZ=              0.0000

  Exact polarizability: 548.866  13.262 295.163  -0.000   0.000  78.485
 Approx polarizability: 519.611  22.409 405.198  -0.000   0.000 113.430

                      1                      2                      3
                      A                      A                      A
 Frequencies --     13.8815                23.2130                35.0733
 Red. masses --      5.7136                 5.2702                 6.1000
 Frc consts  --      0.0006                 0.0017                 0.0044
 IR Inten    --      0.4195                 0.2439                 0.0195

                      4                      5                      6
                      A                      A                      A
 Frequencies --     53.4603               105.7011               115.0199
 Red. masses --      4.8048                 5.7578                 4.8008
 Frc consts  --      0.0081                 0.0379                 0.0374
 IR Inten    --      0.0769                 0.7439                 0.0571

                      7                      8                      9
                      A                      A                      A
 Frequencies --    123.3094               127.4954               154.6028
 Red. masses --      6.1764                 5.1879                 7.8759
 Frc consts  --      0.0553                 0.0497                 0.1109
 IR Inten    --      2.3956                 0.6379                 1.1279

                     10                     11                     12
                      A                      A                      A
 Frequencies --    173.3584               205.1479               228.7670
 Red. masses --      3.7728                 4.1239                 3.4689
 Frc consts  --      0.0668                 0.1023                 0.1070
 IR Inten    --      0.5425                 0.2661                 6.8296

                     13                     14                     15
                      A                      A                      A
 Frequencies --    278.6957               279.5088               299.5688
 Red. masses --      5.6376                 4.0665                 6.2267
 Frc consts  --      0.2580                 0.1872                 0.3292
 IR Inten    --      6.8939                 1.3146                 0.1573

                     16                     17                     18
                      A                      A                      A
 Frequencies --    364.9597               365.1444               373.9628
 Red. masses --      3.5661                 5.2123                 4.4692
 Frc consts  --      0.2799                 0.4095                 0.3682
 IR Inten    --      0.0582                 3.3695                 0.1680

                     19                     20                     21
                      A                      A                      A
 Frequencies --    383.7173               430.5431               438.9459
 Red. masses --      6.2728                 3.1501                 8.3609
 Frc consts  --      0.5442                 0.3440                 0.9491
 IR Inten    --      4.2857                 2.3387                16.1999

                     22                     23                     24
                      A                      A                      A
 Frequencies --    439.7844               440.0991               447.4483
 Red. masses --      6.7383                 3.2725                 7.5569
 Frc consts  --      0.7679                 0.3734                 0.8914
 IR Inten    --     13.8756                 1.7219                 4.3183

                     25                     26                     27
                      A                      A                      A
 Frequencies --    472.4304               520.1791               522.6963
 Red. masses --      7.0970                 3.1354                 6.1494
 Frc consts  --      0.9333                 0.4999                 0.9899
 IR Inten    --      6.6630                 6.8733                 6.3403

                     28                     29                     30
                      A                      A                      A
 Frequencies --    540.2361               549.1551               554.9251
 Red. masses --      6.6285                 6.0281                 3.4647
 Frc consts  --      1.1398                 1.0711                 0.6286
 IR Inten    --      4.6769                 7.5103                 2.8555

                     31                     32                     33
                      A                      A                      A
 Frequencies --    558.9368               563.5960               588.3478
 Red. masses --      3.5281                 3.4631                 4.8267
 Frc consts  --      0.6494                 0.6481                 0.9844
 IR Inten    --      0.4521                 0.3797                20.6694

                     34                     35                     36
                      A                      A                      A
 Frequencies --    657.3369               678.8043               694.7319
 Red. masses --      6.7661                 5.9361                 3.0053
 Frc consts  --      1.7225                 1.6115                 0.8546
 IR Inten    --      0.2417                12.3153                 3.8882

                     37                     38                     39
                      A                      A                      A
 Frequencies --    711.3312               746.0350               746.6695
 Red. masses --      2.4800                 6.2940                 6.4437
 Frc consts  --      0.7393                 2.0639                 2.1166
 IR Inten    --      0.0467                 8.2225                 0.9983

                     40                     41                     42
                      A                      A                      A
 Frequencies --    768.8446               771.6363               778.3650
 Red. masses --      1.1379                 1.5326                 1.3482
 Frc consts  --      0.3963                 0.5377                 0.4812
 IR Inten    --     75.1783                17.4405                39.5768

                     43                     44                     45
                      A                      A                      A
 Frequencies --    781.0914               791.3791               796.8996
 Red. masses --      5.5717                 2.7679                 3.5796
 Frc consts  --      2.0028                 1.0213                 1.3393
 IR Inten    --      3.3188                24.5695                 0.4669

                     46                     47                     48
                      A                      A                      A
 Frequencies --    806.1941               852.7232               864.6427
 Red. masses --      5.1671                 1.4756                 1.7148
 Frc consts  --      1.9787                 0.6322                 0.7553
 IR Inten    --      0.2532                25.7814                23.9426

                     49                     50                     51
                      A                      A                      A
 Frequencies --    885.1942               891.8848               892.9830
 Red. masses --      3.9306                 1.6487                 1.3902
 Frc consts  --      1.8146                 0.7727                 0.6532
 IR Inten    --     13.8858                15.3602                36.5234

                     52                     53                     54
                      A                      A                      A
 Frequencies --    895.7875               906.2462               970.4412
 Red. masses --      1.5572                 3.8506                 1.3535
 Frc consts  --      0.7362                 1.8633                 0.7510
 IR Inten    --     28.3600                 1.1655                 0.0088

                     55                     56                     57
                      A                      A                      A
 Frequencies --    973.0908               987.0821               988.5156
 Red. masses --      1.3910                 1.4606                 5.4040
 Frc consts  --      0.7760                 0.8385                 3.1112
 IR Inten    --      0.7622                 9.3071                 9.2702

                     58                     59                     60
                      A                      A                      A
 Frequencies --    998.6109               999.0831              1002.8090
 Red. masses --      5.1747                 1.2658                 1.3099
 Frc consts  --      3.0404                 0.7444                 0.7761
 IR Inten    --     36.6379                38.8807                 1.7427

                     61                     62                     63
                      A                      A                      A
 Frequencies --   1010.2282              1016.8358              1028.3471
 Red. masses --      1.2796                 1.3105                 1.3104
 Frc consts  --      0.7694                 0.7984                 0.8165
 IR Inten    --      5.8269                 0.0685                 0.0062

                     64                     65                     66
                      A                      A                      A
 Frequencies --   1079.0026              1088.7972              1106.8408
 Red. masses --      2.1939                 2.1524                 2.5616
 Frc consts  --      1.5049                 1.5034                 1.8489
 IR Inten    --      2.9521                34.6318               221.4323

                     67                     68                     69
                      A                      A                      A
 Frequencies --   1129.8749              1137.3328              1179.7448
 Red. masses --      1.9814                 1.8821                 1.2702
 Frc consts  --      1.4903                 1.4344                 1.0416
 IR Inten    --      5.3680                25.8969                11.9183

                     70                     71                     72
                      A                      A                      A
 Frequencies --   1181.0834              1202.4489              1204.0689
 Red. masses --      1.2197                 1.1448                 1.2704
 Frc consts  --      1.0025                 0.9753                 1.0852
 IR Inten    --     17.6341                 1.1360                 5.1860

                     73                     74                     75
                      A                      A                      A
 Frequencies --   1222.5542              1250.3850              1251.3457
 Red. masses --      1.8578                 2.0903                 1.8922
 Frc consts  --      1.6360                 1.9255                 1.7457
 IR Inten    --     96.8912                 1.0361                46.2584

                     76                     77                     78
                      A                      A                      A
 Frequencies --   1253.4968              1282.4215              1290.7593
 Red. masses --      2.0294                 1.7815                 1.7805
 Frc consts  --      1.8788                 1.7262                 1.7477
 IR Inten    --     17.9999                39.9027                10.0885

                     79                     80                     81
                      A                      A                      A
 Frequencies --   1312.4458              1339.5420              1360.8178
 Red. masses --      1.7647                 2.2973                 2.3351
 Frc consts  --      1.7910                 2.4287                 2.5477
 IR Inten    --     12.4433               184.4620               615.4712

                     82                     83                     84
                      A                      A                      A
 Frequencies --   1374.6419              1381.3083              1393.9359
 Red. masses --      3.4556                 2.6337                 3.8991
 Frc consts  --      3.8473                 2.9607                 4.4638
 IR Inten    --     55.2194                47.9174                 6.5863

                     85                     86                     87
                      A                      A                      A
 Frequencies --   1417.2379              1433.6523              1440.9749
 Red. masses --      3.0613                 3.2985                 2.5936
 Frc consts  --      3.6227                 3.9944                 3.1730
 IR Inten    --      0.6009                 7.3822                19.5572

                     88                     89                     90
                      A                      A                      A
 Frequencies --   1457.6717              1481.3895              1496.0089
 Red. masses --      2.0750                 2.8373                 2.6359
 Frc consts  --      2.5977                 3.6685                 3.4757
 IR Inten    --     28.9749                20.3956                33.0303

                     91                     92                     93
                      A                      A                      A
 Frequencies --   1519.0455              1522.8867              1538.0548
 Red. masses --      2.8022                 2.3931                 2.5245
 Frc consts  --      3.8097                 3.2700                 3.5186
 IR Inten    --      9.2199                26.0981                78.7864

                     94                     95                     96
                      A                      A                      A
 Frequencies --   1561.8918              1604.9318              1637.8223
 Red. masses --      3.1946                 3.7198                 5.9455
 Frc consts  --      4.5917                 5.6453                 9.3966
 IR Inten    --    100.8151                24.8113               162.0558

                     97                     98                     99
                      A                      A                      A
 Frequencies --   1661.2465              1664.1524              1691.5777
 Red. masses --      4.1645                 4.2514                 5.9999
 Frc consts  --      6.7715                 6.9369                10.1153
 IR Inten    --    230.2510               148.7082                73.8385

                    100                    101                    102
                      A                      A                      A
 Frequencies --   1699.4924              1709.3257              1713.6732
 Red. masses --      4.6613                 6.4644                 5.5594
 Frc consts  --      7.9323                11.1283                 9.6192
 IR Inten    --    486.1879               129.2436               427.2342

                    103                    104                    105
                      A                      A                      A
 Frequencies --   1724.2723              1733.7935              3061.3948
 Red. masses --      6.2777                 6.8736                 1.0890
 Frc consts  --     10.9968                12.1739                 6.0134
 IR Inten    --     32.9369               805.8130               132.3123

                    106                    107                    108
                      A                      A                      A
 Frequencies --   3166.5692              3196.4762              3202.4364
 Red. masses --      1.0891                 1.0898                 1.0877
 Frc consts  --      6.4341                 6.5604                 6.5723
 IR Inten    --     22.9943                 4.7350                15.1225

                    109                    110                    111
                      A                      A                      A
 Frequencies --   3203.8888              3209.5391              3210.7839
 Red. masses --      1.0881                 1.0885                 1.0896
 Frc consts  --      6.5805                 6.6067                 6.6183
 IR Inten    --      2.9339                 3.6058                 5.0049

                    112                    113                    114
                      A                      A                      A
 Frequencies --   3214.5627              3223.0811              3232.2728
 Red. masses --      1.0898                 1.0934                 1.0952
 Frc consts  --      6.6348                 6.6923                 6.7416
 IR Inten    --      6.9374                19.8057                31.1576

                    115                    116                    117
                      A                      A                      A
 Frequencies --   3234.0909              3241.0104              3241.2170
 Red. masses --      1.0973                 1.0932                 1.0933
 Frc consts  --      6.7618                 6.7659                 6.7671
 IR Inten    --     17.0363                11.5448                 3.1736

                    118                    119                    120
                      A                      A                      A
 Frequencies --   3242.9246              3244.9819              3382.4764
 Red. masses --      1.0944                 1.0955                 1.0678
 Frc consts  --      6.7811                 6.7967                 7.1983
 IR Inten    --     13.5605                 5.1050               328.2028

 - Thermochemistry -
 -------------------
 Temperature   298.150 Kelvin.  Pressure   1.00000 Atm.
 Atom     1 has atomic number  8 and mass  15.99491

 Molecular mass:   340.12118 amu.
 Principal axes and moments of inertia in atomic units:
                           1         2         3
     Eigenvalues --  3236.31505********************
           X            0.99999   0.00384  -0.00000
           Y           -0.00384   0.99999   0.00000
           Z            0.00000  -0.00000   1.00000
 This molecule is an asymmetric top.
 Rotational symmetry number  1.
 Warning -- assumption of classical behavior for rotation
           may cause significant error
 Rotational temperatures (Kelvin)      0.02676     0.00365     0.00321
 Rotational constants (GHZ):           0.55765     0.07599     0.06688
 Zero-point vibrational energy     872708.0 (Joules/Mol)
                                  208.58223 (Kcal/Mol)
 Warning -- explicit consideration of  33 degrees of freedom as
           vibrations may cause significant error
 Vibrational temperatures:     19.97    33.40    50.46    76.92   152.08
          (Kelvin)            165.49   177.41   183.44   222.44   249.42
                              295.16   329.14   400.98   402.15   431.01
                              525.10   525.36   538.05   552.08   619.46
                              631.55   632.75   633.20   643.78   679.72
                              748.42   752.04   777.28   790.11   798.41
                              804.19   810.89   846.50   945.76   976.65
                              999.56  1023.45  1073.38  1074.29  1106.20
                             1110.21  1119.89  1123.82  1138.62  1146.56
                             1159.93  1226.88  1244.03  1273.60  1283.22
                             1284.80  1288.84  1303.89  1396.25  1400.06
                             1420.19  1422.25  1436.78  1437.46  1442.82
                             1453.49  1463.00  1479.56  1552.44  1566.54
                             1592.50  1625.64  1636.37  1697.39  1699.32
                             1730.06  1732.39  1758.98  1799.03  1800.41
                             1803.50  1845.12  1857.11  1888.32  1927.30
                             1957.91  1977.80  1987.39  2005.56  2039.09
                             2062.71  2073.24  2097.26  2131.39  2152.42
                             2185.57  2191.09  2212.92  2247.21  2309.14
                             2356.46  2390.16  2394.34  2433.80  2445.19
                             2459.34  2465.59  2480.84  2494.54  4404.66
                             4555.99  4599.02  4607.59  4609.68  4617.81
                             4619.60  4625.04  4637.29  4650.52  4653.14
                             4663.09  4663.39  4665.85  4668.81  4866.63

 Zero-point correction=                           0.332397 (Hartree/Particle)
 Thermal correction to Energy=                    0.352060
 Thermal correction to Enthalpy=                  0.353004
 Thermal correction to Gibbs Free Energy=         0.282137
 Sum of electronic and zero-point Energies=          -1107.028999
 Sum of electronic and thermal Energies=             -1107.009336
 Sum of electronic and thermal Enthalpies=           -1107.008392
 Sum of electronic and thermal Free Energies=        -1107.079259

                     E (Thermal)             CV                S
                      KCal/Mol        Cal/Mol-Kelvin    Cal/Mol-Kelvin
 Total                  220.921             79.860            149.152
 Electronic               0.000              0.000              0.000
 Translational            0.889              2.981             43.367
 Rotational               0.889              2.981             35.982
 Vibrational            219.144             73.899             69.803
 Vibration     1          0.593              1.986              7.359
 Vibration     2          0.593              1.985              6.338
 Vibration     3          0.594              1.982              5.520
 Vibration     4          0.596              1.976              4.685
 Vibration     5          0.605              1.945              3.346
 Vibration     6          0.608              1.937              3.182
 Vibration     7          0.610              1.930              3.048
 Vibration     8          0.611              1.926              2.983
 Vibration     9          0.620              1.898              2.615
 Vibration    10          0.627              1.875              2.399
 Vibration    11          0.640              1.833              2.086
 Vibration    12          0.651              1.797              1.889
 Vibration    13          0.679              1.713              1.542
 Vibration    14          0.680              1.711              1.537
 Vibration    15          0.692              1.674              1.419
 Vibration    16          0.738              1.544              1.101
 Vibration    17          0.738              1.544              1.100
 Vibration    18          0.745              1.526              1.063
 Vibration    19          0.753              1.505              1.024
 Vibration    20          0.792              1.404              0.857
 Vibration    21          0.799              1.385              0.830
 Vibration    22          0.800              1.383              0.827
 Vibration    23          0.800              1.383              0.826
 Vibration    24          0.807              1.367              0.804
 Vibration    25          0.829              1.311              0.731
 Vibration    26          0.875              1.205              0.610
 Vibration    27          0.878              1.200              0.604
 Vibration    28          0.895              1.161              0.565
 Vibration    29          0.904              1.142              0.546
 Vibration    30          0.910              1.129              0.534
 Vibration    31          0.915              1.120              0.526
 Vibration    32          0.919              1.110              0.517
 Vibration    33          0.946              1.057              0.470

 Optimization completed.
    -- Stationary point found.
 Normal termination of Gaussian 16 at Thu Aug 19 21:19:30 2021.
 Normal termination of Gaussian 16 at Thu Aug 19 20:10:25 2021.
