 Gaussian 16, Revision A.03,
 Gaussian 16:  EM64L-G16RevA.03 25-Dec-2016

 ----------------------------------------------------------------------
 #n CAM-B3LYP/6-31G(d,p) Opt=(Tight,ReadFC) TD=(nstates=7) Freq Geom=Al
 lCheck Guess=Read
 ----------------------------------------------------------------------

 Structure from the checkpoint file:  "TD_PY101_keto_CB_2.chk"
 ----------
 PY101_keto
 ----------
 Charge =  0 Multiplicity = 1

 SCF Done:  E(RCAM-B3LYP) =  -1107.35508191     A.U. after    1 cycles
 Total Energy, E(TD-HF/TD-DFT) =  -1107.25068174
 SCF Done:  E(RCAM-B3LYP) =  -1107.35508769     A.U. after    6 cycles
 Total Energy, E(TD-HF/TD-DFT) =  -1107.25068174
 Optimization completed.
    -- Stationary point found.
 Normal termination of Gaussian 16 at Tue Aug 24 19:39:18 2021.

 ----------------------------------------------------------------------
 #N Geom=AllCheck Guess=TCheck SCRF=Check GenChk RCAM-B3LYP TD(FC,Read)
 /6-31G(d,p) Freq
 ----------------------------------------------------------------------

 Structure from the checkpoint file:  "TD_PY101_keto_CB_2.chk"
 ----------
 PY101_keto
 ----------
 Charge =  0 Multiplicity = 1

                         Standard orientation:
 ---------------------------------------------------------------------
 Center     Atomic      Atomic             Coordinates (Angstroms)
 Number     Number       Type             X           Y           Z
 ---------------------------------------------------------------------
      1          8           0        2.008493   -2.688268   -0.000001
      2          8           0       -1.696208    2.347593   -0.000001
      3          7           0        0.557632   -0.568430   -0.000001
      4          7           0       -0.575229    0.110210   -0.000001
      5          6           0        6.593858    1.785528    0.000001
      6          6           0        6.622909    0.411577    0.000001
      7          6           0        5.357138    2.446748    0.000001
      8          6           0        4.179737    1.730017    0.000000
      9          6           0        5.476423   -1.764978    0.000000
     10          6           0        4.330489   -2.510464   -0.000000
     11          6           0        5.432325   -0.344768    0.000000
     12          6           0        4.173932    0.319506    0.000000
     13          6           0        3.070188   -1.887123   -0.000001
     14          6           0        2.952447   -0.465500   -0.000000
     15          6           0        1.677453    0.150872   -0.000000
     16          6           0       -6.688683   -0.030366    0.000001
     17          6           0       -6.851893   -1.400939    0.000001
     18          6           0       -5.722764   -2.232478    0.000001
     19          6           0       -4.459400   -1.686139    0.000000
     20          6           0       -4.256882   -0.283566    0.000000
     21          6           0       -5.414330    0.553456    0.000000
     22          6           0       -5.259293    1.976285    0.000000
     23          6           0       -4.032725    2.557392   -0.000000
     24          6           0       -2.826381    1.778472   -0.000001
     25          6           0       -2.951643    0.313713   -0.000000
     26          6           0       -1.778088   -0.474285   -0.000001
     27          1           0        5.322616    3.531150    0.000001
     28          1           0        3.247769    2.281671   -0.000000
     29          1           0        7.517288    2.354619    0.000001
     30          1           0        7.571258   -0.117775    0.000001
     31          1           0        1.189927   -2.123960   -0.000001
     32          1           0        4.350236   -3.594057   -0.000000
     33          1           0        6.445050   -2.255321    0.000001
     34          1           0       -7.557416    0.621536    0.000001
     35          1           0       -7.847020   -1.832771    0.000002
     36          1           0       -5.842720   -3.310659    0.000001
     37          1           0       -3.609239   -2.357618    0.000000
     38          1           0       -6.156579    2.588302    0.000000
     39          1           0       -3.904840    3.633891   -0.000001
     40          1           0        1.593984    1.234991   -0.000000
     41          1           0       -1.781228   -1.556109   -0.000000
     42          1           0       -0.663099    1.177286   -0.000001
 ---------------------------------------------------------------------

 SCF Done:  E(RCAM-B3LYP) =  -1107.35508769     A.U. after    1 cycles

 Excitation energies and oscillator strengths:

 Excited State   1:      Singlet-A      2.8410 eV  436.41 nm  f=0.9785  <S**2>=0.000
      88 -> 91        -0.11216
      89 -> 90         0.68483
 This state for optimization and/or second-order correction.
 Total Energy, E(TD-HF/TD-DFT) =  -1107.25068177
 Copying the excited state density for this state as the 1-particle RhoCI density.

 Excited State   2:      Singlet-A      3.7201 eV  333.28 nm  f=0.0000  <S**2>=0.000
      85 -> 90         0.62145
      85 -> 91        -0.27440
      85 -> 95        -0.15792

 Excited State   3:      Singlet-A      3.7843 eV  327.63 nm  f=0.1077  <S**2>=0.000
      87 -> 91        -0.13412
      88 -> 90         0.61332
      89 -> 91        -0.28103

 Excited State   4:      Singlet-A      4.0964 eV  302.66 nm  f=0.0455  <S**2>=0.000
      87 -> 90         0.42854
      87 -> 91        -0.12100
      88 -> 90         0.19862
      88 -> 91        -0.10823
      88 -> 92         0.12937
      89 -> 91         0.42210
      89 -> 92         0.13351

 Excited State   5:      Singlet-A      4.2219 eV  293.67 nm  f=0.2123  <S**2>=0.000
      86 -> 90         0.39343
      86 -> 91         0.20398
      87 -> 90        -0.29361
      88 -> 91         0.10221
      88 -> 93        -0.12045
      89 -> 91         0.34568
      89 -> 93         0.16407

 Excited State   6:      Singlet-A      4.3974 eV  281.95 nm  f=0.0000  <S**2>=0.000
      86 -> 90         0.41627
      86 -> 91         0.12512
      87 -> 90         0.37003
      87 -> 91        -0.12510
      88 -> 90        -0.19366
      89 -> 91        -0.25045
      89 -> 93         0.11087

 Excited State   7:      Singlet-A      4.5905 eV  270.09 nm  f=0.1391  <S**2>=0.000
      84 -> 90         0.16347
      86 -> 90        -0.13494
      86 -> 93         0.10098
      87 -> 95         0.11204
      88 -> 91         0.30094
      88 -> 94         0.16391
      89 -> 91        -0.10997
      89 -> 92         0.50276
      89 -> 95        -0.13436

 The electronic state is 1-A.
 Alpha  occ. eigenvalues --  -19.24608 -19.18713 -14.48632 -14.46736 -10.34408
 Alpha  occ. eigenvalues --  -10.33724 -10.33203 -10.32908 -10.28768 -10.28280
 Alpha  occ. eigenvalues --  -10.28076 -10.27938 -10.27657 -10.27558 -10.27103
 Alpha  occ. eigenvalues --  -10.27069 -10.26928 -10.26879 -10.26729 -10.26708
 Alpha  occ. eigenvalues --  -10.26579 -10.26462 -10.26378 -10.26214 -10.25827
 Alpha  occ. eigenvalues --  -10.25570  -1.15121  -1.13429  -1.08899  -0.97414
 Alpha  occ. eigenvalues --   -0.96174  -0.95078  -0.90882  -0.89377  -0.87976
 Alpha  occ. eigenvalues --   -0.85736  -0.82827  -0.81924  -0.81199  -0.79382
 Alpha  occ. eigenvalues --   -0.75834  -0.72356  -0.71851  -0.70190  -0.69231
 Alpha  occ. eigenvalues --   -0.68110  -0.67306  -0.65893  -0.64718  -0.60753
 Alpha  occ. eigenvalues --   -0.60338  -0.58712  -0.58503  -0.56876  -0.55490
 Alpha  occ. eigenvalues --   -0.54974  -0.52953  -0.52876  -0.52308  -0.51636
 Alpha  occ. eigenvalues --   -0.51181  -0.50126  -0.49657  -0.49567  -0.48810
 Alpha  occ. eigenvalues --   -0.48760  -0.48330  -0.47271  -0.46947  -0.46197
 Alpha  occ. eigenvalues --   -0.45018  -0.44986  -0.44583  -0.43286  -0.41377
 Alpha  occ. eigenvalues --   -0.40990  -0.40670  -0.39885  -0.39605  -0.37647
 Alpha  occ. eigenvalues --   -0.36881  -0.36023  -0.35262  -0.32115  -0.30378
 Alpha  occ. eigenvalues --   -0.28980  -0.28150  -0.26694  -0.23116
 Alpha virt. eigenvalues --   -0.04881  -0.00574   0.02370   0.03946   0.04172
 Alpha virt. eigenvalues --    0.05691   0.10477   0.11336   0.12831   0.14136
 Alpha virt. eigenvalues --    0.14544   0.15205   0.16644   0.17130   0.17685

 Mulliken charges:
               1
     1  O   -0.560917
     2  O   -0.620117
     3  N   -0.381517
     4  N   -0.370076
     5  C   -0.096385
     6  C   -0.134108
     7  C   -0.097088
     8  C   -0.141423
     9  C   -0.121336
    10  C   -0.105310
    11  C    0.086923
    12  C    0.052366
    13  C    0.304930
    14  C   -0.012506
    15  C    0.157748
    16  C   -0.138927
    17  C   -0.099175
    18  C   -0.095918
    19  C   -0.135633
    20  C    0.076310
    21  C    0.070595
    22  C   -0.101697
    23  C   -0.129214
    24  C    0.403357
    25  C   -0.096354
    26  C    0.170702
    27  H    0.096982
    28  H    0.090597
    29  H    0.093402
    30  H    0.093097
    31  H    0.356512
    32  H    0.110957
    33  H    0.102802
    34  H    0.089773
    35  H    0.088205
    36  H    0.091763
    37  H    0.077657
    38  H    0.099868
    39  H    0.101642
    40  H    0.125419
    41  H    0.139145
    42  H    0.356947
 Sum of Mulliken charges =  -0.00000

 Dipole moment (field-independent basis, Debye):
    X=              1.1399    Y=             -0.7077    Z=              0.0000  Tot=              1.3417
 Quadrupole moment (field-independent basis, Debye-Ang):
   XX=           -117.3763   YY=           -142.8548   ZZ=           -155.0432
   XY=              3.3938   XZ=             -0.0000   YZ=              0.0000

  Exact polarizability:1069.207  -4.758 309.662  -0.000  -0.000  78.746
 Approx polarizability: 580.674  13.475 413.450  -0.000  -0.000 113.586

                      1                      2                      3
                      A                      A                      A
 Frequencies --     15.4957                26.4777                35.0412
 Red. masses --      5.3511                 5.5275                 6.0973
 Frc consts  --      0.0008                 0.0023                 0.0044
 IR Inten    --      0.4977                 0.3206                 1.3767

                      4                      5                      6
                      A                      A                      A
 Frequencies --     51.1049                92.7872               107.1909
 Red. masses --      4.7233                 5.6012                 4.5353
 Frc consts  --      0.0073                 0.0284                 0.0307
 IR Inten    --      0.0850                 1.0382                 0.0090

                      7                      8                      9
                      A                      A                      A
 Frequencies --    126.3147               129.0639               143.2282
 Red. masses --      6.1569                 4.9270                 3.8198
 Frc consts  --      0.0579                 0.0484                 0.0462
 IR Inten    --      0.9435                 0.3900                 0.6224

                     10                     11                     12
                      A                      A                      A
 Frequencies --    155.4283               200.9044               219.1068
 Red. masses --      7.8371                 4.6171                 3.4828
 Frc consts  --      0.1115                 0.1098                 0.0985
 IR Inten    --      0.8127                 2.0225                 0.1190

                     13                     14                     15
                      A                      A                      A
 Frequencies --    252.8498               262.5463               278.1676
 Red. masses --      3.4956                 5.5169                 5.6285
 Frc consts  --      0.1317                 0.2241                 0.2566
 IR Inten    --      1.3615                 4.4739                15.8100

                     16                     17                     18
                      A                      A                      A
 Frequencies --    340.0834               353.7354               364.7298
 Red. masses --      4.4200                 4.7358                 5.3025
 Frc consts  --      0.3012                 0.3491                 0.4156
 IR Inten    --      0.0479                 0.0056                 4.3302

                     19                     20                     21
                      A                      A                      A
 Frequencies --    397.5347               418.8013               427.5742
 Red. masses --      5.9735                 3.2463                 3.1591
 Frc consts  --      0.5562                 0.3355                 0.3403
 IR Inten    --      1.5492                 1.3042                 2.0072

                     22                     23                     24
                      A                      A                      A
 Frequencies --    429.0269               433.8633               443.4703
 Red. masses --      8.7289                 7.7949                 6.4525
 Frc consts  --      0.9466                 0.8645                 0.7477
 IR Inten    --     16.4520                 4.3995                56.8820

                     25                     26                     27
                      A                      A                      A
 Frequencies --    471.7785               515.4439               526.1502
 Red. masses --      7.1248                 6.3947                 3.2748
 Frc consts  --      0.9343                 1.0010                 0.5341
 IR Inten    --     15.2667                26.6363                 6.0840

                     28                     29                     30
                      A                      A                      A
 Frequencies --    533.8667               540.2091               541.1108
 Red. masses --      3.2097                 6.9062                 3.3404
 Frc consts  --      0.5390                 1.1874                 0.5763
 IR Inten    --      6.6770                 6.0559                 0.0954

                     31                     32                     33
                      A                      A                      A
 Frequencies --    549.0201               551.1003               593.5157
 Red. masses --      6.0273                 3.5096                 4.8830
 Frc consts  --      1.0704                 0.6280                 1.0135
 IR Inten    --      2.7176                 0.0053                 2.4375

                     34                     35                     36
                      A                      A                      A
 Frequencies --    653.5029               674.4651               688.6960
 Red. masses --      6.7403                 5.9739                 3.0747
 Frc consts  --      1.6960                 1.6011                 0.8592
 IR Inten    --      0.3327                 6.0116                 0.6783

                     37                     38                     39
                      A                      A                      A
 Frequencies --    689.8530               738.4257               748.1170
 Red. masses --      3.1150                 5.8302                 6.4433
 Frc consts  --      0.8734                 1.8730                 2.1247
 IR Inten    --      0.6267                14.6998                29.0081

                     40                     41                     42
                      A                      A                      A
 Frequencies --    757.8390               762.6691               771.4380
 Red. masses --      2.2133                 1.9263                 5.5925
 Frc consts  --      0.7489                 0.6602                 1.9609
 IR Inten    --      2.4909                 1.8144                29.5662

                     43                     44                     45
                      A                      A                      A
 Frequencies --    776.1354               779.6461               796.7303
 Red. masses --      1.6902                 1.9086                 5.3899
 Frc consts  --      0.5999                 0.6835                 2.0158
 IR Inten    --     33.9973                16.7165                 5.7891

                     46                     47                     48
                      A                      A                      A
 Frequencies --    806.7707               827.0588               835.5794
 Red. masses --      1.8366                 1.2460                 1.6089
 Frc consts  --      0.7043                 0.5021                 0.6618
 IR Inten    --      3.6499               120.0237                46.2104

                     49                     50                     51
                      A                      A                      A
 Frequencies --    845.8216               855.6556               876.4360
 Red. masses --      1.3443                 1.5631                 4.0821
 Frc consts  --      0.5666                 0.6743                 1.8475
 IR Inten    --      0.7198                 5.8744                 0.7082

                     52                     53                     54
                      A                      A                      A
 Frequencies --    887.1637               892.6379               900.8996
 Red. masses --      1.5042                 1.5180                 3.8431
 Frc consts  --      0.6976                 0.7126                 1.8377
 IR Inten    --      7.8190                 2.6034                 8.4770

                     55                     56                     57
                      A                      A                      A
 Frequencies --    966.7083               968.8659               979.8448
 Red. masses --      1.3300                 1.3106                 1.3463
 Frc consts  --      0.7323                 0.7248                 0.7616
 IR Inten    --      1.0532                 0.9676                 0.3520

                     58                     59                     60
                      A                      A                      A
 Frequencies --    981.3048               981.8905               995.2324
 Red. masses --      1.2999                 5.9445                 5.8351
 Frc consts  --      0.7375                 3.3767                 3.4052
 IR Inten    --      0.0003                17.5968                26.9976

                     61                     62                     63
                      A                      A                      A
 Frequencies --   1006.5254              1011.2443              1061.6031
 Red. masses --      1.3246                 1.3135                 1.1005
 Frc consts  --      0.7906                 0.7914                 0.7307
 IR Inten    --      0.8778                 0.0926                85.8576

                     64                     65                     66
                      A                      A                      A
 Frequencies --   1079.7749              1083.6281              1117.6095
 Red. masses --      2.1795                 2.1315                 2.2711
 Frc consts  --      1.4972                 1.4747                 1.6714
 IR Inten    --     18.4669                 6.9172               238.6918

                     67                     68                     69
                      A                      A                      A
 Frequencies --   1130.3476              1170.1075              1178.9993
 Red. masses --      1.8285                 1.3403                 1.2559
 Frc consts  --      1.3764                 1.0812                 1.0286
 IR Inten    --      7.0926                63.3473                25.8147

                     70                     71                     72
                      A                      A                      A
 Frequencies --   1186.4152              1193.4396              1200.6721
 Red. masses --      1.6487                 1.2161                 1.1815
 Frc consts  --      1.3673                 1.0205                 1.0036
 IR Inten    --    284.6544                 2.8648                 4.2480

                     73                     74                     75
                      A                      A                      A
 Frequencies --   1229.9727              1240.9215              1249.1205
 Red. masses --      1.8816                 2.0544                 1.8024
 Frc consts  --      1.6771                 1.8639                 1.6570
 IR Inten    --     58.7923               277.8709                12.8517

                     76                     77                     78
                      A                      A                      A
 Frequencies --   1256.7563              1279.0877              1283.6902
 Red. masses --      1.9742                 2.2409                 2.1031
 Frc consts  --      1.8372                 2.1601                 2.0419
 IR Inten    --      8.3709               350.0832                31.5612

                     79                     80                     81
                      A                      A                      A
 Frequencies --   1292.2899              1316.1139              1345.1572
 Red. masses --      1.8533                 2.6347                 2.8016
 Frc consts  --      1.8235                 2.6888                 2.9867
 IR Inten    --     24.4001                 6.5089                19.4829

                     82                     83                     84
                      A                      A                      A
 Frequencies --   1351.2576              1356.4606              1378.2151
 Red. masses --      3.1119                 4.4379                 3.3004
 Frc consts  --      3.3477                 4.8111                 3.6936
 IR Inten    --     50.4967               324.0502               148.4748

                     85                     86                     87
                      A                      A                      A
 Frequencies --   1390.0463              1404.4725              1424.1700
 Red. masses --      5.1432                 3.3673                 4.3436
 Frc consts  --      5.8552                 3.9135                 5.1906
 IR Inten    --     86.5395                51.3376                58.8621

                     88                     89                     90
                      A                      A                      A
 Frequencies --   1449.4941              1471.9523              1478.2479
 Red. masses --      2.1506                 2.9970                 2.0825
 Frc consts  --      2.6622                 3.8259                 2.6812
 IR Inten    --      5.9928                60.2659                24.4585

                     91                     92                     93
                      A                      A                      A
 Frequencies --   1499.0002              1522.8093              1535.6708
 Red. masses --      2.4764                 2.4795                 2.0113
 Frc consts  --      3.2784                 3.3877                 2.7947
 IR Inten    --     33.1725               101.7394                53.0893

                     94                     95                     96
                      A                      A                      A
 Frequencies --   1539.4948              1574.2035              1578.8447
 Red. masses --      3.0430                 3.0738                 4.8172
 Frc consts  --      4.2492                 4.4880                 7.0750
 IR Inten    --     17.1423               424.3029               222.7829

                     97                     98                     99
                      A                      A                      A
 Frequencies --   1603.7944              1611.5384              1637.8440
 Red. masses --      3.5895                 4.3146                 4.1275
 Frc consts  --      5.4398                 6.6019                 6.5234
 IR Inten    --    365.4036               202.9890               164.7933

                    100                    101                    102
                      A                      A                      A
 Frequencies --   1648.8475              1664.7712              1681.8250
 Red. masses --      4.0405                 4.7124                 5.6235
 Frc consts  --      6.4721                 7.6948                 9.3717
 IR Inten    --      3.2829                91.8407               157.3187

                    103                    104                    105
                      A                      A                      A
 Frequencies --   1690.7919              1695.0384              2724.9451
 Red. masses --      4.3782                 5.0997                 1.1023
 Frc consts  --      7.3744                 8.6329                 4.8223
 IR Inten    --     79.4103                96.5193               226.5300

                    106                    107                    108
                      A                      A                      A
 Frequencies --   3185.2382              3202.6907              3204.0872
 Red. masses --      1.0880                 1.0886                 1.0879
 Frc consts  --      6.5037                 6.5789                 6.5804
 IR Inten    --     20.9223                 0.6653                 4.0610

                    109                    110                    111
                      A                      A                      A
 Frequencies --   3205.9524              3212.2886              3215.2095
 Red. masses --      1.0884                 1.0885                 1.0889
 Frc consts  --      6.5909                 6.6176                 6.6323
 IR Inten    --     18.3640                 4.4460                10.7297

                    112                    113                    114
                      A                      A                      A
 Frequencies --   3216.2428              3221.7659              3229.0559
 Red. masses --      1.0897                 1.0707                 1.0937
 Frc consts  --      6.6415                 6.5481                 6.7189
 IR Inten    --     12.8895                45.3716                20.4294

                    115                    116                    117
                      A                      A                      A
 Frequencies --   3231.5580              3238.3903              3239.0040
 Red. masses --      1.0953                 1.0970                 1.0951
 Frc consts  --      6.7394                 6.7780                 6.7693
 IR Inten    --     31.7569                41.9138                 9.5619

                    118                    119                    120
                      A                      A                      A
 Frequencies --   3242.5448              3243.9760              3263.2861
 Red. masses --      1.0950                 1.0938                 1.0885
 Frc consts  --      6.7832                 6.7819                 6.8293
 IR Inten    --     12.0304                19.5168                 3.4808

 - Thermochemistry -
 -------------------
 Temperature   298.150 Kelvin.  Pressure   1.00000 Atm.
 Atom     1 has atomic number  8 and mass  15.99491

 Molecular mass:   340.12118 amu.
 Principal axes and moments of inertia in atomic units:
                           1         2         3
     Eigenvalues --  3210.20991********************
           X            0.99999   0.00375  -0.00000
           Y           -0.00375   0.99999   0.00000
           Z            0.00000  -0.00000   1.00000
 This molecule is an asymmetric top.
 Rotational symmetry number  1.
 Warning -- assumption of classical behavior for rotation
           may cause significant error
 Rotational temperatures (Kelvin)      0.02698     0.00366     0.00322
 Rotational constants (GHZ):           0.56219     0.07621     0.06712
 Zero-point vibrational energy     862176.2 (Joules/Mol)
                                  206.06507 (Kcal/Mol)
 Warning -- explicit consideration of  33 degrees of freedom as
           vibrations may cause significant error
 Vibrational temperatures:     22.29    38.10    50.42    73.53   133.50
          (Kelvin)            154.22   181.74   185.69   206.07   223.63
                              289.06   315.25   363.79   377.75   400.22
                              489.30   508.95   524.76   571.96   602.56
                              615.18   617.27   624.23   638.05   678.78
                              741.61   757.01   768.12   777.24   778.54
                              789.92   792.91   853.94   940.24   970.40
                              990.88   992.54  1062.43  1076.37  1090.36
                             1097.31  1109.93  1116.69  1121.74  1146.32
                             1160.76  1189.95  1202.21  1216.95  1231.10
                             1261.00  1276.43  1284.31  1296.19  1390.88
                             1393.98  1409.78  1411.88  1412.72  1431.92
                             1448.17  1454.96  1527.41  1553.56  1559.10
                             1607.99  1626.32  1683.52  1696.32  1706.99
                             1717.09  1727.50  1769.66  1785.41  1797.21
                             1808.19  1840.32  1846.94  1859.32  1893.59
                             1935.38  1944.16  1951.64  1982.94  1999.97
                             2020.72  2049.06  2085.50  2117.81  2126.87
                             2156.73  2190.98  2209.49  2214.99  2264.93
                             2271.61  2307.50  2318.64  2356.49  2372.32
                             2395.23  2419.77  2432.67  2438.78  3920.59
                             4582.85  4607.96  4609.97  4612.65  4621.77
                             4625.97  4627.46  4635.40  4645.89  4649.49
                             4659.32  4660.20  4665.30  4667.36  4695.14

 Zero-point correction=                           0.328386 (Hartree/Particle)
 Thermal correction to Energy=                    0.348439
 Thermal correction to Enthalpy=                  0.349383
 Thermal correction to Gibbs Free Energy=         0.277823
 Sum of electronic and zero-point Energies=          -1106.922296
 Sum of electronic and thermal Energies=             -1106.902243
 Sum of electronic and thermal Enthalpies=           -1106.901299
 Sum of electronic and thermal Free Energies=        -1106.972859

                     E (Thermal)             CV                S
                      KCal/Mol        Cal/Mol-Kelvin    Cal/Mol-Kelvin
 Total                  218.649             81.011            150.611
 Electronic               0.000              0.000              0.000
 Translational            0.889              2.981             43.367
 Rotational               0.889              2.981             35.968
 Vibrational            216.871             75.049             71.277
 Vibration     1          0.593              1.986              7.141
 Vibration     2          0.593              1.985              6.077
 Vibration     3          0.594              1.982              5.521
 Vibration     4          0.595              1.977              4.774
 Vibration     5          0.602              1.954              3.600
 Vibration     6          0.606              1.943              3.319
 Vibration     7          0.611              1.927              3.001
 Vibration     8          0.612              1.924              2.960
 Vibration     9          0.616              1.910              2.760
 Vibration    10          0.620              1.897              2.605
 Vibration    11          0.638              1.839              2.125
 Vibration    12          0.647              1.812              1.966
 Vibration    13          0.664              1.758              1.711
 Vibration    14          0.670              1.741              1.645
 Vibration    15          0.679              1.714              1.545
 Vibration    16          0.720              1.595              1.212
 Vibration    17          0.730              1.568              1.150
 Vibration    18          0.738              1.545              1.102
 Vibration    19          0.764              1.475              0.972
 Vibration    20          0.782              1.429              0.896
 Vibration    21          0.789              1.410              0.867
 Vibration    22          0.790              1.407              0.862
 Vibration    23          0.795              1.396              0.846
 Vibration    24          0.803              1.375              0.816
 Vibration    25          0.829              1.313              0.733
 Vibration    26          0.870              1.216              0.621
 Vibration    27          0.881              1.192              0.596
 Vibration    28          0.889              1.175              0.579
 Vibration    29          0.895              1.161              0.565
 Vibration    30          0.896              1.159              0.563
 Vibration    31          0.904              1.142              0.546
 Vibration    32          0.906              1.137              0.542
 Vibration    33          0.951              1.046              0.461

 Optimization completed.
    -- Stationary point found.
 Normal termination of Gaussian 16 at Wed Aug 25 03:22:22 2021.
