 Gaussian 16, Revision A.03,
 Gaussian 16:  EM64L-G16RevA.03 25-Dec-2016

 ----------------------------------------------------------------------
 #n CAM-B3LYP/6-31G(d,p) Opt=ReadFC Freq TD=(nstates=4) Geom=AllCheck G
 uess=Read
 ----------------------------------------------------------------------

 Structure from the checkpoint file:  "TD_PY101_CAM-B3LYP.chk"
 -----
 PY101
 -----
 Charge =  0 Multiplicity = 1

 SCF Done:  E(RCAM-B3LYP) =  -1107.37050348     A.U. after    1 cycles
 Total Energy, E(TD-HF/TD-DFT) =  -1107.24618667
 SCF Done:  E(RCAM-B3LYP) =  -1107.36213768     A.U. after   13 cycles
 Total Energy, E(TD-HF/TD-DFT) =  -1107.25515835
 SCF Done:  E(RCAM-B3LYP) =  -1107.36205277     A.U. after   11 cycles
 Total Energy, E(TD-HF/TD-DFT) =  -1107.25528464
 SCF Done:  E(RCAM-B3LYP) =  -1107.36182331     A.U. after    8 cycles
 Total Energy, E(TD-HF/TD-DFT) =  -1107.25529023
 Optimization completed.
    -- Stationary point found.
 Normal termination of Gaussian 16 at Tue Aug 17 04:16:12 2021.

 ----------------------------------------------------------------------
 #N Geom=AllCheck Guess=TCheck SCRF=Check GenChk RCAM-B3LYP TD(FC,Read)
 /6-31G(d,p) Freq
 ----------------------------------------------------------------------

 Structure from the checkpoint file:  "TD_PY101_CAM-B3LYP.chk"
 -----
 PY101
 -----
 Charge =  0 Multiplicity = 1

                         Standard orientation:
 ---------------------------------------------------------------------
 Center     Atomic      Atomic             Coordinates (Angstroms)
 Number     Number       Type             X           Y           Z
 ---------------------------------------------------------------------
      1          8           0        1.851746   -2.551237   -0.000045
      2          8           0       -1.851746    2.551237   -0.000031
      3          7           0        0.545738   -0.369650   -0.000025
      4          7           0       -0.545737    0.369647   -0.000025
      5          6           0        6.716301    1.608332    0.000027
      6          6           0        6.657172    0.232852    0.000039
      7          6           0        5.527010    2.348663   -0.000003
      8          6           0        4.305239    1.706965   -0.000018
      9          6           0        5.375323   -1.866498    0.000028
     10          6           0        4.182443   -2.536800    0.000005
     11          6           0        5.422802   -0.445688    0.000024
     12          6           0        4.209632    0.300475   -0.000002
     13          6           0        2.964966   -1.834613   -0.000018
     14          6           0        2.939093   -0.398775   -0.000009
     15          6           0        1.704571    0.292384   -0.000003
     16          6           0       -6.657172   -0.232851    0.000031
     17          6           0       -6.716301   -1.608332    0.000025
     18          6           0       -5.527010   -2.348663    0.000005
     19          6           0       -4.305240   -1.706964   -0.000007
     20          6           0       -4.209632   -0.300474    0.000001
     21          6           0       -5.422802    0.445689    0.000019
     22          6           0       -5.375323    1.866499    0.000022
     23          6           0       -4.182443    2.536800    0.000005
     24          6           0       -2.964966    1.834613   -0.000012
     25          6           0       -2.939094    0.398775   -0.000007
     26          6           0       -1.704570   -0.292385   -0.000009
     27          1           0        5.562558    3.432957   -0.000017
     28          1           0        3.407929    2.313105   -0.000045
     29          1           0        7.675299    2.115364    0.000039
     30          1           0        7.570686   -0.354608    0.000061
     31          1           0        1.073342   -1.908484   -0.000047
     32          1           0        4.132301   -3.619433    0.000003
     33          1           0        6.310421   -2.418097    0.000047
     34          1           0       -7.570686    0.354609    0.000045
     35          1           0       -7.675300   -2.115363    0.000034
     36          1           0       -5.562558   -3.432956   -0.000002
     37          1           0       -3.407929   -2.313105   -0.000024
     38          1           0       -1.073341    1.908484   -0.000036
     39          1           0       -6.310421    2.418098    0.000035
     40          1           0       -4.132300    3.619434    0.000004
     41          1           0        1.666711    1.377942    0.000017
     42          1           0       -1.666712   -1.377943    0.000002
 ---------------------------------------------------------------------

 SCF Done:  E(RCAM-B3LYP) =  -1107.36182331     A.U. after    1 cycles

 Excitation energies and oscillator strengths:

 Excited State   1:      Singlet-A      2.8989 eV  427.69 nm  f=1.1206  <S**2>=0.000
      88 -> 91        -0.11744
      89 -> 90        -0.68868
 This state for optimization and/or second-order correction.
 Total Energy, E(TD-HF/TD-DFT) =  -1107.25529021
 Copying the excited state density for this state as the 1-particle RhoCI density.

 Excited State   2:      Singlet-A      3.8225 eV  324.35 nm  f=0.0004  <S**2>=0.000
      85 -> 90         0.67631
      85 -> 92         0.15468

 Excited State   3:      Singlet-A      3.8563 eV  321.51 nm  f=0.0000  <S**2>=0.000
      86 -> 90         0.10811
      87 -> 91        -0.13432
      88 -> 90         0.60249
      89 -> 91         0.26893
      89 -> 93        -0.10134

 Excited State   4:      Singlet-A      4.1812 eV  296.53 nm  f=0.2506  <S**2>=0.000
      86 -> 91        -0.23641
      87 -> 90         0.59057
      88 -> 91        -0.12557
      88 -> 93         0.12175
      89 -> 94         0.21106

 The electronic state is 1-A.
 Alpha  occ. eigenvalues --  -19.23771 -19.23771 -14.44737 -14.44711 -10.34046
 Alpha  occ. eigenvalues --  -10.34046 -10.31899 -10.31899 -10.28364 -10.28364
 Alpha  occ. eigenvalues --  -10.28058 -10.28058 -10.27487 -10.27487 -10.27220
 Alpha  occ. eigenvalues --  -10.27220 -10.26820 -10.26820 -10.26790 -10.26790
 Alpha  occ. eigenvalues --  -10.26578 -10.26578 -10.26523 -10.26523 -10.26284
 Alpha  occ. eigenvalues --  -10.26284  -1.14368  -1.14132  -1.10137  -0.96685
 Alpha  occ. eigenvalues --   -0.96318  -0.93738  -0.90531  -0.90281  -0.87657
 Alpha  occ. eigenvalues --   -0.85418  -0.82512  -0.82375  -0.81388  -0.79594
 Alpha  occ. eigenvalues --   -0.75552  -0.72063  -0.70619  -0.69915  -0.68773
 Alpha  occ. eigenvalues --   -0.68459  -0.66155  -0.65384  -0.63584  -0.60537
 Alpha  occ. eigenvalues --   -0.59814  -0.59574  -0.58138  -0.57356  -0.56012
 Alpha  occ. eigenvalues --   -0.54397  -0.52554  -0.52267  -0.51481  -0.51448
 Alpha  occ. eigenvalues --   -0.51180  -0.50825  -0.49457  -0.49444  -0.48928
 Alpha  occ. eigenvalues --   -0.48177  -0.47909  -0.47281  -0.46785  -0.45759
 Alpha  occ. eigenvalues --   -0.45707  -0.44622  -0.44586  -0.44037  -0.42005
 Alpha  occ. eigenvalues --   -0.40777  -0.40663  -0.39957  -0.38734  -0.38021
 Alpha  occ. eigenvalues --   -0.37251  -0.37243  -0.35144  -0.31544  -0.31042
 Alpha  occ. eigenvalues --   -0.28708  -0.28514  -0.27020  -0.23184
 Alpha virt. eigenvalues --   -0.04905  -0.00380   0.02529   0.04365   0.04372
 Alpha virt. eigenvalues --    0.05291   0.10715   0.11715   0.13472   0.14378
 Alpha virt. eigenvalues --    0.14834   0.15035   0.16999   0.17058   0.17265

 Mulliken charges:
               1
     1  O   -0.563526
     2  O   -0.563527
     3  N   -0.397663
     4  N   -0.397663
     5  C   -0.097079
     6  C   -0.135773
     7  C   -0.096759
     8  C   -0.139451
     9  C   -0.120275
    10  C   -0.107997
    11  C    0.087317
    12  C    0.055779
    13  C    0.314560
    14  C   -0.025521
    15  C    0.175912
    16  C   -0.135773
    17  C   -0.097080
    18  C   -0.096759
    19  C   -0.139451
    20  C    0.055779
    21  C    0.087317
    22  C   -0.120276
    23  C   -0.107997
    24  C    0.314560
    25  C   -0.025522
    26  C    0.175912
    27  H    0.094798
    28  H    0.088136
    29  H    0.091509
    30  H    0.091717
    31  H    0.359481
    32  H    0.109330
    33  H    0.101990
    34  H    0.091717
    35  H    0.091509
    36  H    0.094798
    37  H    0.088136
    38  H    0.359481
    39  H    0.101990
    40  H    0.109330
    41  H    0.113518
    42  H    0.113518
 Sum of Mulliken charges =  -0.00000

 Dipole moment (field-independent basis, Debye):
    X=              0.0000    Y=             -0.0000    Z=              0.0001  Tot=              0.0001
 Quadrupole moment (field-independent basis, Debye-Ang):
   XX=           -114.2553   YY=           -140.5442   ZZ=           -155.1416
   XY=              1.9161   XZ=              0.0001   YZ=             -0.0001

  Exact polarizability:1139.390 -10.508 310.561   0.000  -0.000  78.725
 Approx polarizability: 592.432  10.765 420.186   0.001  -0.000 113.656

                      1                      2                      3
                      A                      A                      A
 Frequencies --     16.3668                27.6990                35.2255
 Red. masses --      5.5682                 5.3145                 6.0421
 Frc consts  --      0.0009                 0.0024                 0.0044
 IR Inten    --      0.3361                 0.4133                 1.0709

                      4                      5                      6
                      A                      A                      A
 Frequencies --     53.3411                93.4648               110.3931
 Red. masses --      4.6620                 5.7401                 4.6427
 Frc consts  --      0.0078                 0.0295                 0.0333
 IR Inten    --      0.0000                 0.0685                 0.0000

                      7                      8                      9
                      A                      A                      A
 Frequencies --    126.7012               131.4420               151.1960
 Red. masses --      6.1333                 4.8889                 3.8351
 Frc consts  --      0.0580                 0.0498                 0.0517
 IR Inten    --      0.0000                 0.1241                 0.0000

                     10                     11                     12
                      A                      A                      A
 Frequencies --    165.6663               217.2103               229.8037
 Red. masses --      7.5433                 4.9319                 3.3469
 Frc consts  --      0.1220                 0.1371                 0.1041
 IR Inten    --      0.0000                 1.0914                 0.0000

                     13                     14                     15
                      A                      A                      A
 Frequencies --    264.6635               278.4687               281.3818
 Red. masses --      8.2775                 3.2001                 5.7109
 Frc consts  --      0.3416                 0.1462                 0.2664
 IR Inten    --      0.0000                 3.9202                11.9242

                     16                     17                     18
                      A                      A                      A
 Frequencies --    347.0508               355.9427               359.7307
 Red. masses --      4.3760                 4.8851                 5.1527
 Frc consts  --      0.3105                 0.3647                 0.3929
 IR Inten    --      0.4020                 0.0000                 0.0000

                     19                     20                     21
                      A                      A                      A
 Frequencies --    406.6493               424.4794               425.5754
 Red. masses --      6.6481                 3.2049                 3.1362
 Frc consts  --      0.6477                 0.3402                 0.3347
 IR Inten    --     27.1692                 0.0000                 4.1453

                     22                     23                     24
                      A                      A                      A
 Frequencies --    431.3609               432.0955               444.4375
 Red. masses --      8.5505                 7.8652                 6.5002
 Frc consts  --      0.9374                 0.8652                 0.7565
 IR Inten    --     16.6844                 0.0000                29.3850

                     25                     26                     27
                      A                      A                      A
 Frequencies --    472.4951               521.1648               527.8378
 Red. masses --      6.1165                 5.7041                 3.2040
 Frc consts  --      0.8045                 0.9128                 0.5259
 IR Inten    --      0.0000                19.7170                 0.0000

                     28                     29                     30
                      A                      A                      A
 Frequencies --    531.0244               543.9840               547.8181
 Red. masses --      3.2258                 6.4273                 3.4875
 Frc consts  --      0.5359                 1.1206                 0.6167
 IR Inten    --     13.4384                 0.0000                 0.0000

                     31                     32                     33
                      A                      A                      A
 Frequencies --    548.4589               549.4494               590.5000
 Red. masses --      3.5042                 6.6142                 5.2631
 Frc consts  --      0.6211                 1.1765                 1.0813
 IR Inten    --      0.0797                 7.2994                 0.0000

                     34                     35                     36
                      A                      A                      A
 Frequencies --    656.6284               680.1077               687.1845
 Red. masses --      6.7761                 6.3961                 3.5772
 Frc consts  --      1.7213                 1.7431                 0.9953
 IR Inten    --      0.0000                 5.8156                 1.4161

                     37                     38                     39
                      A                      A                      A
 Frequencies --    688.8338               744.0487               749.6356
 Red. masses --      3.6554                 6.3454                 6.4520
 Frc consts  --      1.0219                 2.0697                 2.1362
 IR Inten    --      0.0000                23.8103                 0.0000

                     40                     41                     42
                      A                      A                      A
 Frequencies --    760.1912               760.3344               777.6590
 Red. masses --      2.0891                 2.1064                 1.7590
 Frc consts  --      0.7113                 0.7174                 0.6267
 IR Inten    --      6.0788                 0.0000                 0.0000

                     43                     44                     45
                      A                      A                      A
 Frequencies --    778.0043               790.5250               797.6467
 Red. masses --      1.8031                 5.5575                 5.5743
 Frc consts  --      0.6430                 2.0463                 2.0896
 IR Inten    --     45.5654                 0.0000                44.3451

                     46                     47                     48
                      A                      A                      A
 Frequencies --    834.0122               837.4956               848.0880
 Red. masses --      1.5969                 1.5214                 1.5260
 Frc consts  --      0.6545                 0.6287                 0.6467
 IR Inten    --      0.0000                86.0425                 0.0000

                     49                     50                     51
                      A                      A                      A
 Frequencies --    865.4098               883.1690               892.8698
 Red. masses --      1.6353                 4.1072                 1.4887
 Frc consts  --      0.7216                 1.8875                 0.6993
 IR Inten    --     31.1354                37.1804                17.0219

                     52                     53                     54
                      A                      A                      A
 Frequencies --    893.1166               904.0465               934.5452
 Red. masses --      1.4989                 3.8121                 1.0892
 Frc consts  --      0.7044                 1.8357                 0.5605
 IR Inten    --      0.0000                 0.0000                 0.0000

                     55                     56                     57
                      A                      A                      A
 Frequencies --    940.9625               965.8721               965.8817
 Red. masses --      1.0596                 1.2987                 1.2987
 Frc consts  --      0.5528                 0.7138                 0.7139
 IR Inten    --    140.1938                 1.0027                 0.0001

                     58                     59                     60
                      A                      A                      A
 Frequencies --    975.9606               975.9976               985.4909
 Red. masses --      1.3621                 1.3630                 5.3737
 Frc consts  --      0.7644                 0.7650                 3.0749
 IR Inten    --      2.8041                 0.0000                 0.0000

                     61                     62                     63
                      A                      A                      A
 Frequencies --   1000.0211              1009.5888              1009.5961
 Red. masses --      6.7825                 1.3172                 1.3172
 Frc consts  --      3.9963                 0.7910                 0.7910
 IR Inten    --      3.8796                 0.0000                 0.1083

                     64                     65                     66
                      A                      A                      A
 Frequencies --   1083.5282              1084.3293              1125.0001
 Red. masses --      2.1496                 2.1117                 1.9005
 Frc consts  --      1.4869                 1.4629                 1.4172
 IR Inten    --      0.0000                 5.2162               124.6079

                     67                     68                     69
                      A                      A                      A
 Frequencies --   1130.4756              1176.5421              1177.5967
 Red. masses --      1.7788                 1.2805                 1.2617
 Frc consts  --      1.3393                 1.0443                 1.0309
 IR Inten    --      0.0000                39.9916                 0.0000

                     70                     71                     72
                      A                      A                      A
 Frequencies --   1197.4968              1198.0198              1241.0887
 Red. masses --      1.1588                 1.1590                 1.9425
 Frc consts  --      0.9791                 0.9801                 1.7629
 IR Inten    --     23.5194                 0.0000                50.4751

                     73                     74                     75
                      A                      A                      A
 Frequencies --   1250.6841              1256.6751              1258.4201
 Red. masses --      2.0426                 1.7484                 2.0714
 Frc consts  --      1.8825                 1.6268                 1.9327
 IR Inten    --      0.0000                 0.0000                24.5897

                     76                     77                     78
                      A                      A                      A
 Frequencies --   1279.4393              1285.7097              1285.7938
 Red. masses --      2.8978                 1.5807                 2.1873
 Frc consts  --      2.7948                 1.5395                 2.1306
 IR Inten    --     51.0322                90.2643                 0.0000

                     79                     80                     81
                      A                      A                      A
 Frequencies --   1306.1958              1344.0417              1349.2450
 Red. masses --      2.9518                 2.9069                 3.0702
 Frc consts  --      2.9672                 3.0939                 3.2930
 IR Inten    --      0.0000                35.5461                62.0811

                     82                     83                     84
                      A                      A                      A
 Frequencies --   1358.4453              1376.3265              1384.1456
 Red. masses --      3.8633                 4.8490                 2.3012
 Frc consts  --      4.2004                 5.4118                 2.5976
 IR Inten    --      0.0000                 0.0000                 0.0000

                     85                     86                     87
                      A                      A                      A
 Frequencies --   1399.4074              1414.6151              1425.8724
 Red. masses --      3.8900                 5.6557                 4.3704
 Frc consts  --      4.4884                 6.6683                 5.2351
 IR Inten    --    234.0991               145.3150                 0.0000

                     88                     89                     90
                      A                      A                      A
 Frequencies --   1471.8654              1480.6878              1488.5301
 Red. masses --      3.7503                 2.1581                 3.1995
 Frc consts  --      4.7869                 2.7877                 4.1768
 IR Inten    --      0.0000                24.1381                 0.0000

                     91                     92                     93
                      A                      A                      A
 Frequencies --   1518.8200              1520.6037              1529.4099
 Red. masses --      2.5911                 2.9800                 2.7803
 Frc consts  --      3.5217                 4.0598                 3.8317
 IR Inten    --    104.4151                 0.0000                 0.0000

                     94                     95                     96
                      A                      A                      A
 Frequencies --   1545.8548              1561.5344              1565.7660
 Red. masses --      2.0849                 2.3482                 3.4268
 Frc consts  --      2.9354                 3.3735                 4.9499
 IR Inten    --    287.7104                 0.0000               416.4299

                     97                     98                     99
                      A                      A                      A
 Frequencies --   1594.5924              1606.3222              1637.2365
 Red. masses --      3.4058                 3.9166                 3.5693
 Frc consts  --      5.1023                 5.9542                 5.6370
 IR Inten    --    324.9162                 0.0000               281.4237

                    100                    101                    102
                      A                      A                      A
 Frequencies --   1653.1434              1659.3824              1664.6533
 Red. masses --      4.8178                 3.2021                 2.5861
 Frc consts  --      7.7575                 5.1949                 4.2222
 IR Inten    --      0.0000               241.9540                 0.0000

                    103                    104                    105
                      A                      A                      A
 Frequencies --   1685.8038              1690.0674              2902.5444
 Red. masses --      5.5017                 4.8077                 1.0740
 Frc consts  --      9.2122                 8.0908                 5.3308
 IR Inten    --    334.5530                 0.0000               174.4420

                    106                    107                    108
                      A                      A                      A
 Frequencies --   2950.3380              3197.9312              3199.7657
 Red. masses --      1.0726                 1.0875                 1.0884
 Frc consts  --      5.5009                 6.5524                 6.5656
 IR Inten    --      0.0000                51.6881                 0.0000

                    109                    110                    111
                      A                      A                      A
 Frequencies --   3204.0105              3204.0220              3212.3559
 Red. masses --      1.0880                 1.0880                 1.0892
 Frc consts  --      6.5803                 6.5804                 6.6222
 IR Inten    --      5.9902                 0.0000                 3.9129

                    112                    113                    114
                      A                      A                      A
 Frequencies --   3212.5056              3216.7930              3216.8206
 Red. masses --      1.0894                 1.0899                 1.0900
 Frc consts  --      6.6238                 6.6451                 6.6453
 IR Inten    --      0.0000                31.0756                 0.0000

                    115                    116                    117
                      A                      A                      A
 Frequencies --   3231.6124              3231.6727              3241.9427
 Red. masses --      1.0958                 1.0957                 1.0951
 Frc consts  --      6.7422                 6.7423                 6.7812
 IR Inten    --     73.0046                 0.0000                19.3029

                    118                    119                    120
                      A                      A                      A
 Frequencies --   3241.9970              3246.5149              3246.8433
 Red. masses --      1.0951                 1.0929                 1.0930
 Frc consts  --      6.7816                 6.7866                 6.7889
 IR Inten    --      0.0000                54.9895                 0.0000

 - Thermochemistry -
 -------------------
 Temperature   298.150 Kelvin.  Pressure   1.00000 Atm.
 Atom     1 has atomic number  8 and mass  15.99491

 Molecular mass:   340.12118 amu.
 Principal axes and moments of inertia in atomic units:
                           1         2         3
     Eigenvalues --  3222.82190********************
           X            0.99999   0.00366   0.00000
           Y           -0.00366   0.99999  -0.00000
           Z           -0.00000   0.00000   1.00000
 This molecule is an asymmetric top.
 Rotational symmetry number  1.
 Warning -- assumption of classical behavior for rotation
           may cause significant error
 Rotational temperatures (Kelvin)      0.02688     0.00367     0.00323
 Rotational constants (GHZ):           0.55999     0.07637     0.06721
 Zero-point vibrational energy     864045.0 (Joules/Mol)
                                  206.51171 (Kcal/Mol)
 Warning -- explicit consideration of  33 degrees of freedom as
           vibrations may cause significant error
 Vibrational temperatures:     23.55    39.85    50.68    76.75   134.47
          (Kelvin)            158.83   182.29   189.12   217.54   238.36
                              312.52   330.64   380.79   400.65   404.85
                              499.33   512.12   517.57   585.08   610.73
                              612.31   620.63   621.69   639.45   679.82
                              749.84   759.44   764.03   782.67   788.19
                              789.11   790.54   849.60   944.74   978.52
                              988.71   991.08  1070.52  1078.56  1093.75
                             1093.95  1118.88  1119.37  1137.39  1147.64
                             1199.96  1204.97  1220.21  1245.13  1270.68
                             1284.64  1285.00  1300.72  1344.60  1353.84
                             1389.67  1389.69  1404.19  1404.24  1417.90
                             1438.81  1452.57  1452.58  1558.96  1560.11
                             1618.62  1626.50  1692.78  1694.30  1722.93
                             1723.68  1785.65  1799.46  1808.08  1810.59
                             1840.83  1849.85  1849.97  1879.32  1933.78
                             1941.26  1954.50  1980.23  1991.48  2013.44
                             2035.32  2051.51  2117.69  2130.38  2141.66
                             2185.24  2187.81  2200.48  2224.14  2246.70
                             2252.79  2294.26  2311.14  2355.62  2378.50
                             2387.48  2395.06  2425.50  2431.63  4176.11
                             4244.88  4601.11  4603.75  4609.86  4609.87
                             4621.86  4622.08  4628.25  4628.29  4649.57
                             4649.66  4664.43  4664.51  4671.01  4671.48

 Zero-point correction=                           0.329097 (Hartree/Particle)
 Thermal correction to Energy=                    0.348944
 Thermal correction to Enthalpy=                  0.349888
 Thermal correction to Gibbs Free Energy=         0.278935
 Sum of electronic and zero-point Energies=          -1106.926193
 Sum of electronic and thermal Energies=             -1106.906347
 Sum of electronic and thermal Enthalpies=           -1106.905402
 Sum of electronic and thermal Free Energies=        -1106.976355

                     E (Thermal)             CV                S
                      KCal/Mol        Cal/Mol-Kelvin    Cal/Mol-Kelvin
 Total                  218.965             80.525            149.333
 Electronic               0.000              0.000              0.000
 Translational            0.889              2.981             43.367
 Rotational               0.889              2.981             35.968
 Vibrational            217.188             74.564             69.998
 Vibration     1          0.593              1.986              7.032
 Vibration     2          0.593              1.984              5.988
 Vibration     3          0.594              1.982              5.511
 Vibration     4          0.596              1.976              4.690
 Vibration     5          0.602              1.954              3.586
 Vibration     6          0.606              1.941              3.262
 Vibration     7          0.611              1.926              2.996
 Vibration     8          0.612              1.922              2.925
 Vibration     9          0.619              1.901              2.657
 Vibration    10          0.624              1.885              2.484
 Vibration    11          0.646              1.815              1.982
 Vibration    12          0.652              1.795              1.880
 Vibration    13          0.671              1.738              1.631
 Vibration    14          0.679              1.713              1.543
 Vibration    15          0.681              1.708              1.525
 Vibration    16          0.725              1.581              1.180
 Vibration    17          0.731              1.563              1.140
 Vibration    18          0.734              1.555              1.123
 Vibration    19          0.771              1.456              0.939
 Vibration    20          0.786              1.417              0.877
 Vibration    21          0.787              1.415              0.873
 Vibration    22          0.792              1.402              0.854
 Vibration    23          0.793              1.400              0.852
 Vibration    24          0.804              1.373              0.813
 Vibration    25          0.829              1.311              0.731
 Vibration    26          0.876              1.203              0.607
 Vibration    27          0.883              1.188              0.592
 Vibration    28          0.886              1.181              0.585
 Vibration    29          0.899              1.153              0.557
 Vibration    30          0.903              1.144              0.549
 Vibration    31          0.904              1.143              0.547
 Vibration    32          0.905              1.141              0.545
 Vibration    33          0.948              1.052              0.466

 Optimization completed.
    -- Stationary point found.
 Normal termination of Gaussian 16 at Tue Aug 17 11:49:11 2021.
